                         Program Version 4.2.0 -  RELEASE  -
|  1> # ORCA input file
|  2> # -45.01291849
|  3> ! wB97X-D3 def2-SVP Opt
|  4> * xyz 0 1
|  5>    C        3.36150         1.14860        -0.08850
|  6>    C        3.25040        -0.21280        -0.05650
|  7>    C        1.98400        -0.82620         0.01080
|  8>    C        1.87890        -2.23410         0.01460
|  9>    C        0.66480        -2.85930         0.03460
| 10>    C       -0.50270        -2.08520         0.04190
| 11>    C       -0.43260        -0.72140         0.05850
| 12>    C        0.79890        -0.02700         0.05880
| 13>    C        0.95740         1.38890         0.07250
| 14>    C        2.21610         1.94250        -0.01980
| 15>    H        2.29140         3.01840        -0.02670
| 16>    O       -0.08470         2.26170         0.12180
| 17>    H       -0.81980         1.92260         0.68830
| 18>    S       -2.02520         0.08400         0.04200
| 19>    O       -2.09980         1.02040         1.14270
| 20>    O       -3.05930        -0.88230        -0.07340
| 21>    O       -1.99470         0.91620        -1.32250
| 22>    H       -1.45320         1.71560        -1.23580
| 23>    H       -1.47810        -2.54280         0.02800
| 24>    H        0.59330        -3.93550         0.03350
| 25>    H        2.79180        -2.81090        -0.00740
| 26>    H        4.12730        -0.84100        -0.09110
| 27>    H        4.32930         1.62160        -0.15280
| 28> *
| 29>
| 30>                          ****END OF INPUT****
 Total Charge           Charge          ....    0
 Multiplicity           Mult            ....    1
 Number of Electrons    NEL             ....  116
Dispersion correction           -0.010004357
FINAL SINGLE POINT ENERGY     -1084.084300402797
Dispersion correction            ... done
Dispersion correction           -0.010111849
FINAL SINGLE POINT ENERGY     -1084.085620796173
Dispersion correction            ... done
Dispersion correction           -0.009981259
FINAL SINGLE POINT ENERGY     -1084.086345400057
Dispersion correction            ... done
FINAL SINGLE POINT ENERGY     -1084.082732888731
FINAL SINGLE POINT ENERGY     -1084.088187545508
FINAL SINGLE POINT ENERGY     -1084.089187228829
FINAL SINGLE POINT ENERGY     -1084.089257655317
FINAL SINGLE POINT ENERGY     -1084.089455316539
FINAL SINGLE POINT ENERGY     -1084.089484063109
Dispersion correction            ... done
Dispersion correction           -0.009998471
FINAL SINGLE POINT ENERGY     -1084.089493676885
Dispersion correction            ... done
Dispersion correction           -0.009998620
FINAL SINGLE POINT ENERGY     -1084.089494956794
Dispersion correction            ... done
                    ***********************HURRAY********************

CARTESIAN COORDINATES (ANGSTROEM)
---------------------------------
  C      3.372713    1.158532   -0.055006
  C      3.255629   -0.206130   -0.022640
  C      1.976108   -0.820583    0.012757
  C      1.875202   -2.241448    0.016152
  C      0.662297   -2.872164    0.008930
  C     -0.521605   -2.101843    0.001426
  C     -0.461840   -0.730461    0.016078
  C      0.790641   -0.022411    0.026093
  C      0.959123    1.403339    0.012516
  C      2.215426    1.961378   -0.035099
  H      2.282145    3.050800   -0.053088
  O     -0.103617    2.264100   -0.013284
  H     -0.727498    2.049864    0.715606
  S     -2.051217    0.073697    0.065087
  O     -2.044395    0.996180    1.201577
  O     -3.098787   -0.905144   -0.053437
  O     -2.067362    0.930459   -1.283449
  H     -1.414132    1.657913   -1.169882
  H     -1.500110   -2.585245   -0.014977
  H      0.596770   -3.961932    0.004780
  H      2.800500   -2.823328    0.016201
  H      4.142225   -0.844495   -0.032299
  H      4.356785    1.630923   -0.090541

 Multiplicity           Mult            ....    1
 Number of Electrons    NEL             ....  116
 Basis Dimension        Dim             ....  254

ORBITAL ENERGIES
----------------

  NO   OCC          E(Eh)            E(eV)
   0   2.0000     -89.204311     -2427.3727
   1   2.0000     -19.298850      -525.1484
   2   2.0000     -19.287488      -524.8392
   3   2.0000     -19.253655      -523.9186
   4   2.0000     -19.251001      -523.8464
   5   2.0000     -10.378795      -282.4214
   6   2.0000     -10.349116      -281.6138
   7   2.0000     -10.343988      -281.4742
   8   2.0000     -10.333786      -281.1966
   9   2.0000     -10.332622      -281.1649
  10   2.0000     -10.328645      -281.0567
  11   2.0000     -10.323580      -280.9189
  12   2.0000     -10.319285      -280.8020
  13   2.0000     -10.316261      -280.7197
  14   2.0000     -10.313374      -280.6412
  15   2.0000      -8.285520      -225.4605
  16   2.0000      -6.244888      -169.9321
  17   2.0000      -6.243536      -169.8953
  18   2.0000      -6.242003      -169.8535
  19   2.0000      -1.280342       -34.8399
  20   2.0000      -1.186141       -32.2765
  21   2.0000      -1.155805       -31.4511
  22   2.0000      -1.133715       -30.8500
  23   2.0000      -1.021162       -27.7872
  24   2.0000      -0.967386       -26.3239
  25   2.0000      -0.920828       -25.0570
  26   2.0000      -0.884748       -24.0752
  27   2.0000      -0.863456       -23.4958
  28   2.0000      -0.802944       -21.8492
  29   2.0000      -0.762187       -20.7402
  30   2.0000      -0.755835       -20.5673
  31   2.0000      -0.729609       -19.8537
  32   2.0000      -0.699411       -19.0320
  33   2.0000      -0.660256       -17.9665
  34   2.0000      -0.645903       -17.5759
  35   2.0000      -0.633645       -17.2424
  36   2.0000      -0.616822       -16.7846
  37   2.0000      -0.600163       -16.3313
  38   2.0000      -0.594136       -16.1673
  39   2.0000      -0.579472       -15.7682
  40   2.0000      -0.567140       -15.4327
  41   2.0000      -0.556050       -15.1309
  42   2.0000      -0.535090       -14.5605
  43   2.0000      -0.524998       -14.2859
  44   2.0000      -0.518303       -14.1037
  45   2.0000      -0.507156       -13.8004
  46   2.0000      -0.489973       -13.3328
  47   2.0000      -0.483252       -13.1499
  48   2.0000      -0.475785       -12.9468
  49   2.0000      -0.465413       -12.6645
  50   2.0000      -0.455312       -12.3897
  51   2.0000      -0.438333       -11.9276
  52   2.0000      -0.435954       -11.8629
  53   2.0000      -0.424855       -11.5609
  54   2.0000      -0.413164       -11.2428
  55   2.0000      -0.395132       -10.7521
  56   2.0000      -0.359943        -9.7945
  57   2.0000      -0.321163        -8.7393
  58   0.0000      -0.009245        -0.2516
  59   0.0000       0.026401         0.7184
  60   0.0000       0.073743         2.0066
  61   0.0000       0.132667         3.6100
  62   0.0000       0.140575         3.8252

MULLIKEN ATOMIC CHARGES
-----------------------
   0 C :    0.008261
   1 C :   -0.028541
   2 C :   -0.001474
   3 C :    0.001882
   4 C :   -0.009211
   5 C :   -0.003702
   6 C :   -0.167410
   7 C :    0.077348
   8 C :    0.123721
   9 C :   -0.053721
  10 H :    0.029074
  11 O :   -0.310527
  12 H :    0.217200
  13 S :    0.971587
  14 O :   -0.484835
  15 O :   -0.421179
  16 O :   -0.329939
  17 H :    0.209221
  18 H :    0.060445
  19 H :    0.038450
  20 H :    0.023963
  21 H :    0.016181
  22 H :    0.033205
Sum of atomic charges:   -0.0000000

LOEWDIN ATOMIC CHARGES
----------------------
   0 C :   -0.016701
   1 C :   -0.027405
   2 C :   -0.012177
   3 C :    0.009609
   4 C :   -0.028862
   5 C :   -0.006168
   6 C :   -0.191241
   7 C :   -0.045931
   8 C :    0.042549
   9 C :   -0.039480
  10 H :    0.044324
  11 O :   -0.080544
  12 H :    0.059575
  13 S :    1.220481
  14 O :   -0.495428
  15 O :   -0.465515
  16 O :   -0.234512
  17 H :    0.061645
  18 H :    0.047019
  19 H :    0.041951
  20 H :    0.040286
  21 H :    0.036220
  22 H :    0.040303

  Mayer bond orders larger than 0.100000
B(  0-C ,  1-C ) :   1.5062 B(  0-C ,  9-C ) :   1.2419 B(  0-C , 22-H ) :   0.9874
B(  1-C ,  2-C ) :   1.2390 B(  1-C , 21-H ) :   0.9964 B(  2-C ,  3-C ) :   1.2288
B(  2-C ,  7-C ) :   1.3007 B(  3-C ,  4-C ) :   1.5274 B(  3-C , 20-H ) :   0.9928
B(  4-C ,  5-C ) :   1.2420 B(  4-C , 19-H ) :   0.9884 B(  5-C ,  6-C ) :   1.5625
B(  5-C , 18-H ) :   0.9748 B(  6-C ,  7-C ) :   1.2199 B(  6-C , 13-S ) :   0.8657
B(  7-C ,  8-C ) :   1.1821 B(  8-C ,  9-C ) :   1.5450 B(  8-C , 11-O ) :   1.0887
B(  9-C , 10-H ) :   0.9850 B( 11-O , 12-H ) :   0.8842 B( 11-O , 17-H ) :   0.1130
B( 12-H , 14-O ) :   0.1225 B( 13-S , 14-O ) :   1.6041 B( 13-S , 15-O ) :   1.8116
B( 13-S , 16-O ) :   1.0158 B( 16-O , 17-H ) :   0.8916

Dispersion correction           -0.009998723
FINAL SINGLE POINT ENERGY     -1084.089494976471

DIPOLE MOMENT
-------------
                                X             Y             Z
Electronic contribution:     -7.87201       1.20625       0.38752
Nuclear contribution   :      9.92119      -1.64528      -0.55119
                        -----------------------------------------
Total Dipole Moment    :      2.04918      -0.43904      -0.16367
                        -----------------------------------------
Magnitude (a.u.)       :      2.10207
Magnitude (Debye)      :      5.34303

Rotational constants in cm-1:     0.031192     0.017343     0.011962
Rotational constants in MHz :   935.105212   519.935335   358.614008

                             ****ORCA TERMINATED NORMALLY****
TOTAL RUN TIME: 0 days 0 hours 49 minutes 47 seconds 347 msec
