                         Program Version 4.2.0 -  RELEASE  -
|  1> # ORCA input file
|  2> # -39.46113275
|  3> ! wB97X-D3 def2-SVP Opt
|  4> * xyz 0 1
|  5>    C       -2.72190        -0.89730        -0.01400
|  6>    C       -1.61750        -1.72480        -0.00710
|  7>    C       -0.34190        -1.17200         0.01550
|  8>    C       -0.19390         0.20090         0.03350
|  9>    C       -1.29150         1.03480         0.02390
| 10>    C       -2.57330         0.49160        -0.00150
| 11>    O       -3.68310         1.25690        -0.01370
| 12>    H       -3.44710         2.19350        -0.00210
| 13>    H       -1.11500         2.09980         0.03410
| 14>    S        1.42800         0.95040         0.08480
| 15>    O        2.20710         0.37880         1.13640
| 16>    O        1.26690         2.36290         0.02470
| 17>    O        2.04710         0.46860        -1.31540
| 18>    H        2.57320        -0.32710        -1.19800
| 19>   Cl        1.05180        -2.17130         0.01670
| 20>    H       -1.73600        -2.79620        -0.02100
| 21>    H       -3.71850        -1.30800        -0.03110
| 22> *
| 23>
| 24>                          ****END OF INPUT****
 Total Charge           Charge          ....    0
 Multiplicity           Mult            ....    1
 Number of Electrons    NEL             ....  106
Dispersion correction           -0.006916054
FINAL SINGLE POINT ENERGY     -1390.037337299861
Dispersion correction            ... done
Dispersion correction           -0.006995864
FINAL SINGLE POINT ENERGY     -1390.041030744070
Dispersion correction            ... done
Dispersion correction           -0.006991120
FINAL SINGLE POINT ENERGY     -1390.041503994746
Dispersion correction            ... done
FINAL SINGLE POINT ENERGY     -1390.041631807382
FINAL SINGLE POINT ENERGY     -1390.041760970851
FINAL SINGLE POINT ENERGY     -1390.041808018214
Dispersion correction            ... done
Dispersion correction           -0.006966723
FINAL SINGLE POINT ENERGY     -1390.041820409954
Dispersion correction            ... done
Dispersion correction           -0.006968343
FINAL SINGLE POINT ENERGY     -1390.041821948631
Dispersion correction            ... done
                    ***********************HURRAY********************

CARTESIAN COORDINATES (ANGSTROEM)
---------------------------------
  C     -2.717740   -0.894304   -0.006585
  C     -1.605276   -1.723618   -0.029229
  C     -0.320270   -1.183463   -0.020647
  C     -0.164411    0.203359    0.002076
  C     -1.277058    1.039787    0.016659
  C     -2.562546    0.495382    0.013965
  O     -3.673642    1.253462    0.028953
  H     -3.439169    2.187010    0.043297
  H     -1.114470    2.120957    0.025884
  S      1.434755    0.997467    0.085514
  O      2.154869    0.467873    1.218824
  O      1.234612    2.412367   -0.100283
  O      2.139495    0.477167   -1.263680
  H      2.456161   -0.428664   -1.111902
  Cl     1.042300   -2.264678   -0.073192
  H     -1.726434   -2.808152   -0.054343
  H     -3.726775   -1.310451   -0.009609

 Multiplicity           Mult            ....    1
 Number of Electrons    NEL             ....  106
 Basis Dimension        Dim             ....  201

ORBITAL ENERGIES
----------------

  NO   OCC          E(Eh)            E(eV)
   0   2.0000    -101.630849     -2765.5160
   1   2.0000     -89.200610     -2427.2720
   2   2.0000     -19.303850      -525.2845
   3   2.0000     -19.300503      -525.1934
   4   2.0000     -19.248084      -523.7670
   5   2.0000     -19.245569      -523.6986
   6   2.0000     -10.390112      -282.7293
   7   2.0000     -10.383305      -282.5441
   8   2.0000     -10.355618      -281.7907
   9   2.0000     -10.337363      -281.2940
  10   2.0000     -10.334245      -281.2091
  11   2.0000     -10.327437      -281.0238
  12   2.0000      -9.603132      -261.3145
  13   2.0000      -8.281709      -225.3568
  14   2.0000      -7.363711      -200.3768
  15   2.0000      -7.353302      -200.0935
  16   2.0000      -7.352701      -200.0772
  17   2.0000      -6.241250      -169.8331
  18   2.0000      -6.239282      -169.7795
  19   2.0000      -6.238492      -169.7580
  20   2.0000      -1.276821       -34.7441
  21   2.0000      -1.202474       -32.7210
  22   2.0000      -1.157158       -31.4879
  23   2.0000      -1.131758       -30.7967
  24   2.0000      -1.041331       -28.3361
  25   2.0000      -0.981035       -26.6953
  26   2.0000      -0.916810       -24.9477
  27   2.0000      -0.870829       -23.6965
  28   2.0000      -0.809840       -22.0369
  29   2.0000      -0.763713       -20.7817
  30   2.0000      -0.743402       -20.2290
  31   2.0000      -0.703786       -19.1510
  32   2.0000      -0.658369       -17.9151
  33   2.0000      -0.635502       -17.2929
  34   2.0000      -0.612985       -16.6802
  35   2.0000      -0.608480       -16.5576
  36   2.0000      -0.588772       -16.0213
  37   2.0000      -0.568992       -15.4830
  38   2.0000      -0.561545       -15.2804
  39   2.0000      -0.539393       -14.6776
  40   2.0000      -0.531217       -14.4552
  41   2.0000      -0.515236       -14.0203
  42   2.0000      -0.510112       -13.8809
  43   2.0000      -0.493910       -13.4400
  44   2.0000      -0.475223       -12.9315
  45   2.0000      -0.459058       -12.4916
  46   2.0000      -0.446352       -12.1459
  47   2.0000      -0.438432       -11.9304
  48   2.0000      -0.433969       -11.8089
  49   2.0000      -0.420674       -11.4471
  50   2.0000      -0.410951       -11.1826
  51   2.0000      -0.382211       -10.4005
  52   2.0000      -0.336313        -9.1515
  53   0.0000       0.013596         0.3700
  54   0.0000       0.040198         1.0938
  55   0.0000       0.091253         2.4831
  56   0.0000       0.125614         3.4181
  57   0.0000       0.139124         3.7858

MULLIKEN ATOMIC CHARGES
-----------------------
   0 C :   -0.039035
   1 C :    0.001768
   2 C :    0.043480
   3 C :   -0.131241
   4 C :   -0.080537
   5 C :    0.179431
   6 O :   -0.192558
   7 H :    0.193070
   8 H :    0.041331
   9 S :    0.982813
  10 O :   -0.431157
  11 O :   -0.439034
  12 O :   -0.336659
  13 H :    0.205338
  14 Cl:   -0.077321
  15 H :    0.038152
  16 H :    0.042157
Sum of atomic charges:    0.0000000

LOEWDIN ATOMIC CHARGES
----------------------
   0 C :   -0.032509
   1 C :   -0.022345
   2 C :   -0.141931
   3 C :   -0.195702
   4 C :   -0.066535
   5 C :    0.054668
   6 O :   -0.038783
   7 H :    0.099772
   8 H :    0.044595
   9 S :    1.199899
  10 O :   -0.483730
  11 O :   -0.477024
  12 O :   -0.235208
  13 H :    0.063074
  14 Cl:    0.136742
  15 H :    0.046236
  16 H :    0.048781

  Mayer bond orders larger than 0.100000
B(  0-C ,  1-C ) :   1.3988 B(  0-C ,  5-C ) :   1.3542 B(  0-C , 16-H ) :   0.9922
B(  1-C ,  2-C ) :   1.4067 B(  1-C , 15-H ) :   0.9890 B(  2-C ,  3-C ) :   1.4281
B(  2-C , 14-Cl) :   1.0082 B(  3-C ,  4-C ) :   1.4261 B(  3-C ,  9-S ) :   0.8447
B(  4-C ,  5-C ) :   1.3059 B(  4-C ,  8-H ) :   0.9764 B(  5-C ,  6-O ) :   1.2065
B(  6-O ,  7-H ) :   0.9604 B(  9-S , 10-O ) :   1.7841 B(  9-S , 11-O ) :   1.7858
B(  9-S , 12-O ) :   0.9826 B( 12-O , 13-H ) :   0.9281

Dispersion correction           -0.006969311
FINAL SINGLE POINT ENERGY     -1390.041822431621

DIPOLE MOMENT
-------------
                                X             Y             Z
Electronic contribution:      7.16450      -3.55605       0.45445
Nuclear contribution   :     -8.51575       2.84735      -0.89379
                        -----------------------------------------
Total Dipole Moment    :     -1.35125      -0.70871      -0.43934
                        -----------------------------------------
Magnitude (a.u.)       :      1.58782
Magnitude (Debye)      :      4.03591

Rotational constants in cm-1:     0.034549     0.021090     0.014222
Rotational constants in MHz :  1035.745045   632.262426   426.360066

                             ****ORCA TERMINATED NORMALLY****
TOTAL RUN TIME: 0 days 0 hours 16 minutes 22 seconds 402 msec
