                         Program Version 4.2.0 -  RELEASE  -
|  1> # ORCA input file
|  2> # -34.20554357
|  3> ! wB97X-D3 def2-SVP Opt
|  4> * xyz 0 2
|  5>    C        0.29270         2.26750        -0.00020
|  6>    C        0.99520         0.97310         0.00010
|  7>    N        2.31490         0.90860         0.00010
|  8>    C        2.98800        -0.21990         0.00010
|  9>    C        2.37250        -1.45890        -0.00000
| 10>    C        0.97680        -1.45240        -0.00010
| 11>    C        0.33380        -0.24890         0.00000
| 12>    S       -1.54230        -0.18080         0.00000
| 13>    O       -1.85480        -1.58430         0.00030
| 14>    O       -1.77030         0.53740        -1.22890
| 15>    O       -1.77030         0.53800         1.22860
| 16>    H        0.40510        -2.36760        -0.00020
| 17>    H        2.93650        -2.37730        -0.00010
| 18>    H        4.06520        -0.11940         0.00010
| 19>    H        1.00060         3.09100         0.00010
| 20>    H       -0.35960         2.31830         0.87150
| 21>    H       -0.35890         2.31840        -0.87230
| 22> *
| 23>
| 24>                          ****END OF INPUT****
 Total Charge           Charge          ....    0
 Multiplicity           Mult            ....    2
 Number of Electrons    NEL             ....   89
Dispersion correction           -0.006329070
FINAL SINGLE POINT ENERGY      -910.022910985181
Dispersion correction            ... done
Dispersion correction           -0.006479503
FINAL SINGLE POINT ENERGY      -910.053090641827
Dispersion correction            ... done
Dispersion correction           -0.006455803
FINAL SINGLE POINT ENERGY      -910.057451086206
Dispersion correction            ... done
FINAL SINGLE POINT ENERGY      -910.058121442539
FINAL SINGLE POINT ENERGY      -910.058359893555
FINAL SINGLE POINT ENERGY      -910.059566392959
FINAL SINGLE POINT ENERGY      -910.060013677012
FINAL SINGLE POINT ENERGY      -910.060543675810
FINAL SINGLE POINT ENERGY      -910.060945499679
FINAL SINGLE POINT ENERGY      -910.061029703193
Dispersion correction            ... done
Dispersion correction           -0.006434167
FINAL SINGLE POINT ENERGY      -910.061027939396
Dispersion correction            ... done
Dispersion correction           -0.006434098
FINAL SINGLE POINT ENERGY      -910.061045797248
Dispersion correction            ... done
                    ***********************HURRAY********************

CARTESIAN COORDINATES (ANGSTROEM)
---------------------------------
  C      0.339232    2.309570   -0.000177
  C      1.008752    0.966922   -0.000086
  N      2.341733    0.957189   -0.000130
  C      2.995151   -0.201237   -0.000076
  C      2.369535   -1.445179    0.000028
  C      0.981589   -1.469008    0.000065
  C      0.299989   -0.253899    0.000007
  S     -1.464653   -0.318492    0.000073
  O     -1.872106   -1.701932    0.000205
  O     -1.971317    0.533327   -1.127450
  O     -1.971256    0.533697    1.127274
  H      0.418044   -2.404376    0.000127
  H      2.953722   -2.366731    0.000074
  H      4.089072   -0.134717   -0.000124
  H      1.114916    3.083222    0.000523
  H     -0.304292    2.426991    0.883592
  H     -0.303013    2.427450   -0.884824

 Multiplicity           Mult            ....    2
 Number of Electrons    NEL             ....   89
 Basis Dimension        Dim             ....  188

ORBITAL ENERGIES
----------------
                 SPIN UP ORBITALS
  NO   OCC          E(Eh)            E(eV)
   0   1.0000     -89.213547     -2427.6240
   1   1.0000     -19.316261      -525.6222
   2   1.0000     -19.316181      -525.6200
   3   1.0000     -19.274663      -524.4902
   4   1.0000     -14.453751      -393.3066
   5   1.0000     -10.376821      -282.3677
   6   1.0000     -10.361060      -281.9388
   7   1.0000     -10.353190      -281.7246
   8   1.0000     -10.351764      -281.6858
   9   1.0000     -10.330250      -281.1004
  10   1.0000     -10.299410      -280.2612
  11   1.0000      -8.295788      -225.7399
  12   1.0000      -6.254464      -170.1926
  13   1.0000      -6.254124      -170.1834
  14   1.0000      -6.252275      -170.1331
  15   1.0000      -1.307207       -35.5709
  16   1.0000      -1.166296       -31.7365
  17   1.0000      -1.150661       -31.3111
  18   1.0000      -1.092907       -29.7395
  19   1.0000      -0.962306       -26.1857
  20   1.0000      -0.932811       -25.3831
  21   1.0000      -0.847101       -23.0508
  22   1.0000      -0.807236       -21.9660
  23   1.0000      -0.748644       -20.3716
  24   1.0000      -0.729939       -19.8626
  25   1.0000      -0.671519       -18.2730
  26   1.0000      -0.641565       -17.4579
  27   1.0000      -0.631208       -17.1760
  28   1.0000      -0.627294       -17.0695
  29   1.0000      -0.613525       -16.6949
  30   1.0000      -0.565393       -15.3851
  31   1.0000      -0.559883       -15.2352
  32   1.0000      -0.543133       -14.7794
  33   1.0000      -0.533196       -14.5090
  34   1.0000      -0.510679       -13.8963
  35   1.0000      -0.508118       -13.8266
  36   1.0000      -0.498919       -13.5763
  37   1.0000      -0.496089       -13.4993
  38   1.0000      -0.476307       -12.9610
  39   1.0000      -0.459355       -12.4997
  40   1.0000      -0.454377       -12.3642
  41   1.0000      -0.445933       -12.1344
  42   1.0000      -0.411413       -11.1951
  43   1.0000      -0.377616       -10.2754
  44   1.0000      -0.375624       -10.2212
  45   0.0000       0.001668         0.0454
  46   0.0000       0.024345         0.6625
  47   0.0000       0.134216         3.6522
  48   0.0000       0.150709         4.1010
  49   0.0000       0.157036         4.2732

                 SPIN DOWN ORBITALS
  NO   OCC          E(Eh)            E(eV)
   0   1.0000     -89.213880     -2427.6331
   1   1.0000     -19.305304      -525.3240
   2   1.0000     -19.305212      -525.3215
   3   1.0000     -19.273268      -524.4523
   4   1.0000     -14.453768      -393.3070
   5   1.0000     -10.376808      -282.3673
   6   1.0000     -10.361037      -281.9382
   7   1.0000     -10.353249      -281.7262
   8   1.0000     -10.351784      -281.6864
   9   1.0000     -10.330252      -281.1005
  10   1.0000     -10.299418      -280.2614
  11   1.0000      -8.296148      -225.7497
  12   1.0000      -6.254992      -170.2070
  13   1.0000      -6.254767      -170.2009
  14   1.0000      -6.252574      -170.1412
  15   1.0000      -1.293405       -35.1953
  16   1.0000      -1.152990       -31.3744
  17   1.0000      -1.115531       -30.3551
  18   1.0000      -1.092837       -29.7376
  19   1.0000      -0.961840       -26.1730
  20   1.0000      -0.932389       -25.3716
  21   1.0000      -0.846271       -23.0282
  22   1.0000      -0.804680       -21.8965
  23   1.0000      -0.748510       -20.3680
  24   1.0000      -0.723797       -19.6955
  25   1.0000      -0.661830       -18.0093
  26   1.0000      -0.638055       -17.3624
  27   1.0000      -0.623740       -16.9728
  28   1.0000      -0.614951       -16.7337
  29   1.0000      -0.590188       -16.0598
  30   1.0000      -0.564451       -15.3595
  31   1.0000      -0.557805       -15.1787
  32   1.0000      -0.539801       -14.6887
  33   1.0000      -0.508294       -13.8314
  34   1.0000      -0.503677       -13.7057
  35   1.0000      -0.499360       -13.5883
  36   1.0000      -0.477298       -12.9879
  37   1.0000      -0.465584       -12.6692
  38   1.0000      -0.450016       -12.2455
  39   1.0000      -0.449990       -12.2448
  40   1.0000      -0.445464       -12.1217
  41   1.0000      -0.407808       -11.0970
  42   1.0000      -0.376529       -10.2459
  43   1.0000      -0.375289       -10.2121
  44   0.0000      -0.138103        -3.7580
  45   0.0000       0.004315         0.1174
  46   0.0000       0.024575         0.6687
  47   0.0000       0.135090         3.6760
  48   0.0000       0.156135         4.2486

MULLIKEN ATOMIC CHARGES AND SPIN POPULATIONS
--------------------------------------------
   0 C :    0.056450    0.000831
   1 C :   -0.125628    0.001119
   2 N :   -0.127344   -0.001085
   3 C :    0.059205    0.002483
   4 C :   -0.052051    0.000204
   5 C :    0.055261   -0.000329
   6 C :   -0.146574    0.002129
   7 S :    0.928740   -0.125405
   8 O :   -0.388473    0.074599
   9 O :   -0.312957    0.524080
  10 O :   -0.312991    0.523868
  11 H :    0.068108   -0.000283
  12 H :    0.047459   -0.000087
  13 H :    0.053515   -0.000118
  14 H :    0.054758   -0.000572
  15 H :    0.071242   -0.000720
  16 H :    0.071279   -0.000714
Sum of atomic charges         :   -0.0000000

LOEWDIN ATOMIC CHARGES AND SPIN POPULATIONS
-------------------------------------------
   0 C :   -0.072221   -0.000159
   1 C :    0.041310    0.001456
   2 N :   -0.084117   -0.000836
   3 C :    0.052506    0.002171
   4 C :   -0.055131    0.000108
   5 C :    0.020965   -0.000398
   6 C :   -0.230107   -0.002460
   7 S :    1.152320   -0.080773
   8 O :   -0.440721    0.068360
   9 O :   -0.325628    0.506977
  10 O :   -0.325669    0.506764
  11 H :    0.049702   -0.000183
  12 H :    0.044778   -0.000053
  13 H :    0.034598   -0.000024
  14 H :    0.043341   -0.000362
  15 H :    0.047013   -0.000295
  16 H :    0.047061   -0.000292

  Mayer bond orders larger than 0.100000
B(  0-C ,  1-C ) :   1.0775 B(  0-C , 14-H ) :   0.9483 B(  0-C , 15-H ) :   0.9419
B(  0-C , 16-H ) :   0.9420 B(  1-C ,  2-N ) :   1.5822 B(  1-C ,  6-C ) :   1.3114
B(  2-N ,  3-C ) :   1.5064 B(  3-C ,  4-C ) :   1.3883 B(  3-C , 13-H ) :   0.9777
B(  4-C ,  5-C ) :   1.4194 B(  4-C , 12-H ) :   0.9765 B(  5-C ,  6-C ) :   1.4220
B(  5-C , 11-H ) :   0.9742 B(  6-C ,  7-S ) :   0.8893 B(  7-S ,  8-O ) :   1.8099
B(  7-S ,  9-O ) :   1.3939 B(  7-S , 10-O ) :   1.3941 B(  9-O , 10-O ) :   0.3088

Dispersion correction           -0.006433902
FINAL SINGLE POINT ENERGY      -910.061046385593

DIPOLE MOMENT
-------------
                                X             Y             Z
Electronic contribution:     -6.18974      -3.44033       0.00042
Nuclear contribution   :      7.54795       3.01424      -0.00051
                        -----------------------------------------
Total Dipole Moment    :      1.35822      -0.42609      -0.00009
                        -----------------------------------------
Magnitude (a.u.)       :      1.42348
Magnitude (Debye)      :      3.61821

Rotational constants in cm-1:     0.061583     0.028223     0.021432
Rotational constants in MHz :  1846.200175   846.098977   642.520279

                             ****ORCA TERMINATED NORMALLY****
TOTAL RUN TIME: 0 days 0 hours 53 minutes 37 seconds 89 msec
