                         Program Version 4.2.0 -  RELEASE  -
|  1> # ORCA input file
|  2> # -38.14268146
|  3> ! wB97X-D3 def2-SVP Opt
|  4> * xyz 0 2
|  5>    C        3.49610         1.62450        -0.00820
|  6>    C        2.41430         0.59370         0.00830
|  7>    C        2.69210        -0.76790         0.00460
|  8>    C        1.68660        -1.71680        -0.00020
|  9>    C        0.35730        -1.30820        -0.00140
| 10>    C        0.10140         0.04030         0.00060
| 11>    C        1.07320         0.99530         0.00610
| 12>    H        0.80240         2.03870         0.00760
| 13>    S       -1.71510         0.51900        -0.00020
| 14>    O       -2.10140        -0.10790         1.23520
| 15>    O       -2.10240        -0.10290        -1.23760
| 16>    O       -1.61650         1.95300         0.00280
| 17>    F       -0.61840        -2.20560        -0.00350
| 18>    H        1.90200        -2.77430        -0.00110
| 19>    H        3.72070        -1.09720         0.00650
| 20>    H        4.43110         1.20840         0.35680
| 21>    H        3.22420         2.47990         0.60430
| 22>    H        3.65360         1.97920        -1.02640
| 23> *
| 24>
| 25>                          ****END OF INPUT****
 Total Charge           Charge          ....    0
 Multiplicity           Mult            ....    2
 Number of Electrons    NEL             ....   97
Dispersion correction           -0.006456410
FINAL SINGLE POINT ENERGY      -993.130822923366   (Wavefunction not fully converged!)
Dispersion correction            ... done
Dispersion correction           -0.006461156
FINAL SINGLE POINT ENERGY      -993.154832804130
Dispersion correction            ... done
Dispersion correction           -0.006415502
FINAL SINGLE POINT ENERGY      -993.165183884122
Dispersion correction            ... done
FINAL SINGLE POINT ENERGY      -993.169409326901
FINAL SINGLE POINT ENERGY      -993.171699292719
FINAL SINGLE POINT ENERGY      -993.172420668943
FINAL SINGLE POINT ENERGY      -993.173165330089
FINAL SINGLE POINT ENERGY      -993.173414591533
FINAL SINGLE POINT ENERGY      -993.173720126226
FINAL SINGLE POINT ENERGY      -993.173759674006
FINAL SINGLE POINT ENERGY      -993.173771049372
FINAL SINGLE POINT ENERGY      -993.173772957238
FINAL SINGLE POINT ENERGY      -993.173774450620
Dispersion correction            ... done
Dispersion correction           -0.006395462
FINAL SINGLE POINT ENERGY      -993.173775671894
Dispersion correction            ... done
Dispersion correction           -0.006395379
FINAL SINGLE POINT ENERGY      -993.173776748322
Dispersion correction            ... done
                    ***********************HURRAY********************

CARTESIAN COORDINATES (ANGSTROEM)
---------------------------------
  C      3.524029    1.632417   -0.013277
  C      2.426747    0.600200    0.009131
  C      2.715620   -0.770254    0.004797
  C      1.711010   -1.733922   -0.003649
  C      0.384229   -1.332255   -0.006663
  C      0.067639    0.027752    0.000946
  C      1.084052    0.982802    0.009540
  H      0.799215    2.037781    0.017652
  S     -1.612314    0.564493    0.004134
  O     -2.317191   -0.126662    1.131520
  O     -2.317699   -0.113734   -1.129309
  O     -1.623084    2.006827    0.013328
  F     -0.576973   -2.242119   -0.013082
  H      1.938090   -2.801503   -0.005383
  H      3.759157   -1.096874    0.009893
  H      4.463225    1.226825    0.387734
  H      3.254025    2.517799    0.579383
  H      3.721423    1.971627   -1.042494

 Multiplicity           Mult            ....    2
 Number of Electrons    NEL             ....   97
 Basis Dimension        Dim             ....  202

ORBITAL ENERGIES
----------------
                 SPIN UP ORBITALS
  NO   OCC          E(Eh)            E(eV)
   0   1.0000     -89.208720     -2427.4927
   1   1.0000     -24.832389      -675.7237
   2   1.0000     -19.308733      -525.4173
   3   1.0000     -19.308183      -525.4024
   4   1.0000     -19.269387      -524.3467
   5   1.0000     -10.416934      -283.4592
   6   1.0000     -10.351063      -281.6667
   7   1.0000     -10.338330      -281.3203
   8   1.0000     -10.335576      -281.2453
   9   1.0000     -10.334361      -281.2123
  10   1.0000     -10.329754      -281.0869
  11   1.0000     -10.312730      -280.6236
  12   1.0000      -8.290740      -225.6025
  13   1.0000      -6.249216      -170.0498
  14   1.0000      -6.249071      -170.0459
  15   1.0000      -6.247548      -170.0044
  16   1.0000      -1.361946       -37.0604
  17   1.0000      -1.300842       -35.3977
  18   1.0000      -1.160161       -31.5696
  19   1.0000      -1.144685       -31.1485
  20   1.0000      -1.019327       -27.7373
  21   1.0000      -0.927511       -25.2389
  22   1.0000      -0.911374       -24.7998
  23   1.0000      -0.824963       -22.4484
  24   1.0000      -0.804317       -21.8866
  25   1.0000      -0.753388       -20.5007
  26   1.0000      -0.714999       -19.4561
  27   1.0000      -0.684535       -18.6272
  28   1.0000      -0.648302       -17.6412
  29   1.0000      -0.642920       -17.4948
  30   1.0000      -0.624874       -17.0037
  31   1.0000      -0.611855       -16.6494
  32   1.0000      -0.607128       -16.5208
  33   1.0000      -0.585883       -15.9427
  34   1.0000      -0.570128       -15.5140
  35   1.0000      -0.546965       -14.8837
  36   1.0000      -0.546265       -14.8646
  37   1.0000      -0.527592       -14.3565
  38   1.0000      -0.506065       -13.7707
  39   1.0000      -0.499367       -13.5885
  40   1.0000      -0.497816       -13.5463
  41   1.0000      -0.492077       -13.3901
  42   1.0000      -0.482652       -13.1336
  43   1.0000      -0.464267       -12.6334
  44   1.0000      -0.454566       -12.3694
  45   1.0000      -0.442561       -12.0427
  46   1.0000      -0.438439       -11.9305
  47   1.0000      -0.385623       -10.4933
  48   1.0000      -0.356780        -9.7085
  49   0.0000       0.008354         0.2273
  50   0.0000       0.039061         1.0629
  51   0.0000       0.120530         3.2798
  52   0.0000       0.147363         4.0099
  53   0.0000       0.153833         4.1860

                 SPIN DOWN ORBITALS
  NO   OCC          E(Eh)            E(eV)
   0   1.0000     -89.209061     -2427.5020
   1   1.0000     -24.832375      -675.7233
   2   1.0000     -19.297740      -525.1182
   3   1.0000     -19.297290      -525.1060
   4   1.0000     -19.267927      -524.3069
   5   1.0000     -10.416919      -283.4588
   6   1.0000     -10.351136      -281.6687
   7   1.0000     -10.338350      -281.3208
   8   1.0000     -10.335557      -281.2448
   9   1.0000     -10.334367      -281.2124
  10   1.0000     -10.329765      -281.0872
  11   1.0000     -10.312731      -280.6237
  12   1.0000      -8.291103      -225.6124
  13   1.0000      -6.249755      -170.0645
  14   1.0000      -6.249714      -170.0634
  15   1.0000      -6.247855      -170.0128
  16   1.0000      -1.361866       -37.0583
  17   1.0000      -1.287217       -35.0269
  18   1.0000      -1.146742       -31.2044
  19   1.0000      -1.109654       -30.1952
  20   1.0000      -1.019162       -27.7328
  21   1.0000      -0.926773       -25.2188
  22   1.0000      -0.911256       -24.7965
  23   1.0000      -0.824674       -22.4405
  24   1.0000      -0.801225       -21.8024
  25   1.0000      -0.752844       -20.4859
  26   1.0000      -0.710325       -19.3289
  27   1.0000      -0.679697       -18.4955
  28   1.0000      -0.643239       -17.5034
  29   1.0000      -0.638665       -17.3790
  30   1.0000      -0.612803       -16.6752
  31   1.0000      -0.602317       -16.3899
  32   1.0000      -0.588602       -16.0167
  33   1.0000      -0.582635       -15.8543
  34   1.0000      -0.569746       -15.5036
  35   1.0000      -0.546318       -14.8661
  36   1.0000      -0.544768       -14.8239
  37   1.0000      -0.504364       -13.7245
  38   1.0000      -0.500176       -13.6105
  39   1.0000      -0.489754       -13.3269
  40   1.0000      -0.481727       -13.1085
  41   1.0000      -0.470888       -12.8135
  42   1.0000      -0.458732       -12.4827
  43   1.0000      -0.444416       -12.0932
  44   1.0000      -0.438560       -11.9338
  45   1.0000      -0.434905       -11.8344
  46   1.0000      -0.382828       -10.4173
  47   1.0000      -0.356380        -9.6976
  48   0.0000      -0.131181        -3.5696
  49   0.0000       0.010890         0.2963
  50   0.0000       0.039319         1.0699
  51   0.0000       0.121158         3.2969
  52   0.0000       0.147611         4.0167

MULLIKEN ATOMIC CHARGES AND SPIN POPULATIONS
--------------------------------------------
   0 C :    0.032220   -0.000063
   1 C :   -0.111154   -0.000327
   2 C :    0.006599    0.002325
   3 C :   -0.089305   -0.001389
   4 C :    0.302599    0.000035
   5 C :   -0.214299    0.002182
   6 C :    0.003498   -0.000616
   7 H :    0.045358   -0.000262
   8 S :    0.956985   -0.128634
   9 O :   -0.307956    0.526685
  10 O :   -0.309217    0.521568
  11 O :   -0.394912    0.078004
  12 F :   -0.161852    0.000617
  13 H :    0.046726   -0.000033
  14 H :    0.030001   -0.000095
  15 H :    0.043048   -0.000015
  16 H :    0.054245    0.000009
  17 H :    0.067417    0.000008
Sum of atomic charges         :    0.0000000

LOEWDIN ATOMIC CHARGES AND SPIN POPULATIONS
-------------------------------------------
   0 C :   -0.050705   -0.000050
   1 C :   -0.038301   -0.000247
   2 C :    0.006360    0.001869
   3 C :   -0.050644   -0.000770
   4 C :    0.086940    0.001114
   5 C :   -0.235262   -0.003336
   6 C :   -0.002503   -0.000660
   7 H :    0.045686   -0.000188
   8 S :    1.149785   -0.082626
   9 O :   -0.323582    0.509035
  10 O :   -0.325100    0.503958
  11 O :   -0.441946    0.071441
  12 F :   -0.035799    0.000515
  13 H :    0.050734   -0.000037
  14 H :    0.040749   -0.000012
  15 H :    0.036673   -0.000012
  16 H :    0.041172    0.000003
  17 H :    0.045741    0.000004

  Mayer bond orders larger than 0.100000
B(  0-C ,  1-C ) :   1.0356 B(  0-C , 15-H ) :   0.9672 B(  0-C , 16-H ) :   0.9669
B(  0-C , 17-H ) :   0.9602 B(  1-C ,  2-C ) :   1.3981 B(  1-C ,  6-C ) :   1.3922
B(  2-C ,  3-C ) :   1.3688 B(  2-C , 14-H ) :   0.9898 B(  3-C ,  4-C ) :   1.3991
B(  3-C , 13-H ) :   0.9897 B(  4-C ,  5-C ) :   1.3371 B(  4-C , 12-F ) :   1.1533
B(  5-C ,  6-C ) :   1.3968 B(  5-C ,  8-S ) :   0.8772 B(  6-C ,  7-H ) :   0.9876
B(  8-S ,  9-O ) :   1.4176 B(  8-S , 10-O ) :   1.4228 B(  8-S , 11-O ) :   1.8093
B(  9-O , 10-O ) :   0.3051

Dispersion correction           -0.006395268
FINAL SINGLE POINT ENERGY      -993.173777896302

DIPOLE MOMENT
-------------
                                X             Y             Z
Electronic contribution:    -15.04349      -5.79856       0.02031
Nuclear contribution   :     17.35503       5.69140      -0.03991
                        -----------------------------------------
Total Dipole Moment    :      2.31154      -0.10716      -0.01960
                        -----------------------------------------
Magnitude (a.u.)       :      2.31411
Magnitude (Debye)      :      5.88200

Rotational constants in cm-1:     0.048065     0.021918     0.016290
Rotational constants in MHz :  1440.953553   657.099187   488.351832

                             ****ORCA TERMINATED NORMALLY****
TOTAL RUN TIME: 0 days 1 hours 13 minutes 44 seconds 913 msec
