                         Program Version 4.2.0 -  RELEASE  -
|  1> # ORCA input file
|  2> # -34.47012878
|  3> ! wB97X-D3 def2-SVP Opt
|  4> * xyz 0 2
|  5>    C       -2.64460        -0.85090        -0.00090
|  6>    C       -1.65890        -1.81380         0.00120
|  7>    N       -0.38190        -1.45580         0.00550
|  8>    C       -0.06310        -0.21630         0.00940
|  9>    C       -0.91930         0.84560         0.00680
| 10>    C       -2.29240         0.51310         0.00190
| 11>    N       -3.22560         1.48480         0.00110
| 12>    H       -4.20360         1.25950        -0.00780
| 13>    H       -2.94730         2.44940        -0.00110
| 14>    H       -0.55630         1.85830         0.01030
| 15>    S        1.79200         0.17270        -0.00140
| 16>    O        2.12740        -0.42190        -1.26880
| 17>    O        1.78060         1.61140         0.05350
| 18>    O        2.18420        -0.51620         1.19880
| 19>    H       -1.87460        -2.87110        -0.00130
| 20>    H       -3.68390        -1.13960        -0.00540
| 21> *
| 22>
| 23>                          ****END OF INPUT****
 Total Charge           Charge          ....    0
 Multiplicity           Mult            ....    2
 Number of Electrons    NEL             ....   89
Dispersion correction           -0.005240635
FINAL SINGLE POINT ENERGY      -926.030751018964
Dispersion correction            ... done
Dispersion correction           -0.005193726
FINAL SINGLE POINT ENERGY      -926.042290778379
Dispersion correction            ... done
Dispersion correction           -0.005165835
FINAL SINGLE POINT ENERGY      -926.044449242396
Dispersion correction            ... done
FINAL SINGLE POINT ENERGY      -926.044925115482
FINAL SINGLE POINT ENERGY      -926.054127011782   (Wavefunction not fully converged!)
FINAL SINGLE POINT ENERGY      -926.055841107302
FINAL SINGLE POINT ENERGY      -926.061608762951
FINAL SINGLE POINT ENERGY      -926.069891914373
FINAL SINGLE POINT ENERGY      -926.071497776669
FINAL SINGLE POINT ENERGY      -926.072314120166
FINAL SINGLE POINT ENERGY      -926.073160269236
FINAL SINGLE POINT ENERGY      -926.073407270426
FINAL SINGLE POINT ENERGY      -926.073557840037
FINAL SINGLE POINT ENERGY      -926.073705153335
FINAL SINGLE POINT ENERGY      -926.073743368869
FINAL SINGLE POINT ENERGY      -926.073771940754
FINAL SINGLE POINT ENERGY      -926.073776569393
Dispersion correction            ... done
Dispersion correction           -0.005240806
FINAL SINGLE POINT ENERGY      -926.073779723988
Dispersion correction            ... done
Dispersion correction           -0.005240218
FINAL SINGLE POINT ENERGY      -926.073780827137
Dispersion correction            ... done
                    ***********************HURRAY********************

CARTESIAN COORDINATES (ANGSTROEM)
---------------------------------
  C     -2.688366   -0.856455   -0.005414
  C     -1.714150   -1.834199   -0.010105
  N     -0.423898   -1.472662   -0.008699
  C     -0.099377   -0.256400   -0.002574
  C     -0.942859    0.837728    0.002512
  C     -2.317997    0.515564    0.000905
  N     -3.258296    1.489432    0.003066
  H     -4.241312    1.265040    0.017576
  H     -2.992668    2.462574    0.021695
  H     -0.560459    1.858327    0.007478
  S      1.946143    0.199408   -0.000645
  O      2.291501   -0.440203   -1.258531
  O      1.833719    1.650777    0.015083
  O      2.297077   -0.467151    1.241469
  H     -1.954105   -2.899923   -0.015066
  H     -3.742254   -1.142657   -0.006949

 Multiplicity           Mult            ....    2
 Number of Electrons    NEL             ....   89
 Basis Dimension        Dim             ....  183

ORBITAL ENERGIES
----------------
                 SPIN UP ORBITALS
  NO   OCC          E(Eh)            E(eV)
   0   1.0000     -89.174059     -2426.5495
   1   1.0000     -19.242414      -523.6127
   2   1.0000     -19.242142      -523.6053
   3   1.0000     -19.242043      -523.6026
   4   1.0000     -14.492835      -394.3701
   5   1.0000     -14.490877      -394.3168
   6   1.0000     -10.400343      -283.0077
   7   1.0000     -10.391558      -282.7687
   8   1.0000     -10.382589      -282.5246
   9   1.0000     -10.339201      -281.3440
  10   1.0000     -10.337666      -281.3022
  11   1.0000      -8.257224      -224.6905
  12   1.0000      -6.216112      -169.1490
  13   1.0000      -6.214475      -169.1045
  14   1.0000      -6.214428      -169.1032
  15   1.0000      -1.257283       -34.2124
  16   1.0000      -1.129123       -30.7250
  17   1.0000      -1.115993       -30.3677
  18   1.0000      -1.114927       -30.3387
  19   1.0000      -1.081366       -29.4255
  20   1.0000      -0.933188       -25.3933
  21   1.0000      -0.924983       -25.1701
  22   1.0000      -0.799862       -21.7653
  23   1.0000      -0.777455       -21.1556
  24   1.0000      -0.713527       -19.4160
  25   1.0000      -0.692242       -18.8369
  26   1.0000      -0.668401       -18.1881
  27   1.0000      -0.620473       -16.8839
  28   1.0000      -0.612989       -16.6803
  29   1.0000      -0.603001       -16.4085
  30   1.0000      -0.585170       -15.9233
  31   1.0000      -0.577651       -15.7187
  32   1.0000      -0.569398       -15.4941
  33   1.0000      -0.566464       -15.4143
  34   1.0000      -0.524513       -14.2727
  35   1.0000      -0.501923       -13.6580
  36   1.0000      -0.456889       -12.4326
  37   1.0000      -0.455760       -12.4019
  38   1.0000      -0.454157       -12.3582
  39   1.0000      -0.434275       -11.8172
  40   1.0000      -0.425413       -11.5761
  41   1.0000      -0.393634       -10.7113
  42   1.0000      -0.372732       -10.1425
  43   1.0000      -0.368601       -10.0302
  44   1.0000      -0.353699        -9.6246
  45   0.0000       0.019476         0.5300
  46   0.0000       0.032601         0.8871
  47   0.0000       0.097966         2.6658
  48   0.0000       0.111558         3.0357
  49   0.0000       0.136995         3.7278

                 SPIN DOWN ORBITALS
  NO   OCC          E(Eh)            E(eV)
   0   1.0000     -89.174359     -2426.5577
   1   1.0000     -19.240472      -523.5599
   2   1.0000     -19.239515      -523.5338
   3   1.0000     -19.239444      -523.5319
   4   1.0000     -14.492786      -394.3688
   5   1.0000     -14.485453      -394.1692
   6   1.0000     -10.400156      -283.0026
   7   1.0000     -10.387323      -282.6534
   8   1.0000     -10.381561      -282.4966
   9   1.0000     -10.337918      -281.3091
  10   1.0000     -10.337579      -281.2998
  11   1.0000      -8.257505      -224.6981
  12   1.0000      -6.216409      -169.1571
  13   1.0000      -6.214813      -169.1137
  14   1.0000      -6.214794      -169.1132
  15   1.0000      -1.251764       -34.0622
  16   1.0000      -1.120638       -30.4941
  17   1.0000      -1.108015       -30.1506
  18   1.0000      -1.107650       -30.1407
  19   1.0000      -1.079746       -29.3814
  20   1.0000      -0.928996       -25.2793
  21   1.0000      -0.916792       -24.9472
  22   1.0000      -0.793448       -21.5908
  23   1.0000      -0.767707       -20.8904
  24   1.0000      -0.698523       -19.0078
  25   1.0000      -0.688225       -18.7276
  26   1.0000      -0.663050       -18.0425
  27   1.0000      -0.613622       -16.6975
  28   1.0000      -0.606679       -16.5086
  29   1.0000      -0.593232       -16.1427
  30   1.0000      -0.580373       -15.7928
  31   1.0000      -0.571805       -15.5596
  32   1.0000      -0.563437       -15.3319
  33   1.0000      -0.560716       -15.2579
  34   1.0000      -0.519527       -14.1371
  35   1.0000      -0.499087       -13.5808
  36   1.0000      -0.447473       -12.1764
  37   1.0000      -0.445689       -12.1278
  38   1.0000      -0.421187       -11.4611
  39   1.0000      -0.420639       -11.4462
  40   1.0000      -0.404685       -11.0120
  41   1.0000      -0.386074       -10.5056
  42   1.0000      -0.368736       -10.0338
  43   1.0000      -0.352166        -9.5829
  44   0.0000      -0.116677        -3.1750
  45   0.0000       0.021577         0.5871
  46   0.0000       0.040358         1.0982
  47   0.0000       0.110632         3.0104
  48   0.0000       0.122579         3.3355

MULLIKEN ATOMIC CHARGES AND SPIN POPULATIONS
--------------------------------------------
   0 C :   -0.081623   -0.001376
   1 C :    0.088171    0.031452
   2 N :   -0.034033    0.268906
   3 C :   -0.118044    0.313168
   4 C :    0.006052    0.032316
   5 C :    0.080350    0.003565
   6 N :   -0.102615   -0.001675
   7 H :    0.144168    0.002284
   8 H :    0.149195   -0.000090
   9 H :    0.055927   -0.003726
  10 S :    1.009044    0.022181
  11 O :   -0.422466    0.121189
  12 O :   -0.448841    0.089250
  13 O :   -0.422591    0.119856
  14 H :    0.064227   -0.002411
  15 H :    0.033079    0.005111
Sum of atomic charges         :   -0.0000000

LOEWDIN ATOMIC CHARGES AND SPIN POPULATIONS
-------------------------------------------
   0 C :   -0.080717   -0.001049
   1 C :    0.066511    0.035871
   2 N :   -0.003551    0.263828
   3 C :   -0.042129    0.288273
   4 C :   -0.083984    0.040633
   5 C :    0.071036    0.005014
   6 N :    0.004213   -0.000211
   7 H :    0.087575    0.001503
   8 H :    0.090757   -0.000097
   9 H :    0.049086   -0.001129
  10 S :    1.140893    0.042525
  11 O :   -0.454914    0.117941
  12 O :   -0.475337    0.088158
  13 O :   -0.455086    0.116661
  14 H :    0.043451   -0.001072
  15 H :    0.042197    0.003151

  Mayer bond orders larger than 0.100000
B(  0-C ,  1-C ) :   1.5041 B(  0-C ,  5-C ) :   1.2714 B(  0-C , 15-H ) :   0.9743
B(  1-C ,  2-N ) :   1.3631 B(  1-C , 14-H ) :   0.9747 B(  2-N ,  3-C ) :   1.7931
B(  3-C ,  4-C ) :   1.3874 B(  3-C , 10-S ) :   0.4693 B(  4-C ,  5-C ) :   1.3021
B(  4-C ,  9-H ) :   0.9667 B(  5-C ,  6-N ) :   1.3185 B(  6-N ,  7-H ) :   0.9468
B(  6-N ,  8-H ) :   0.9445 B( 10-S , 11-O ) :   1.6799 B( 10-S , 12-O ) :   1.6679
B( 10-S , 13-O ) :   1.6807 B( 11-O , 12-O ) :   0.1029 B( 11-O , 13-O ) :   0.1102
B( 12-O , 13-O ) :   0.1028

Dispersion correction           -0.005239861
FINAL SINGLE POINT ENERGY      -926.073781182961

DIPOLE MOMENT
-------------
                                X             Y             Z
Electronic contribution:      9.01733      -1.01171      -0.01107
Nuclear contribution   :    -12.82172       1.42779       0.03086
                        -----------------------------------------
Total Dipole Moment    :     -3.80439       0.41608       0.01979
                        -----------------------------------------
Magnitude (a.u.)       :      3.82713
Magnitude (Debye)      :      9.72779

Rotational constants in cm-1:     0.068674     0.021405     0.018068
Rotational constants in MHz :  2058.796046   641.698523   541.652829

                             ****ORCA TERMINATED NORMALLY****
TOTAL RUN TIME: 0 days 1 hours 35 minutes 39 seconds 616 msec
