                         Program Version 4.2.0 -  RELEASE  -
|  1> # ORCA input file
|  2> # -52.24022524
|  3> ! wB97X-D3 def2-SVP Opt
|  4> * xyz 0 1
|  5>    C       -5.05580        -1.35530         0.20080
|  6>    H       -5.94290        -1.51270         0.81210
|  7>    O       -4.32020        -0.34640         0.85190
|  8>    C       -3.13850         0.04870         0.31470
|  9>    C       -2.59020        -0.44750        -0.86340
| 10>    C       -1.37270         0.03130        -1.31410
| 11>    C       -0.68700         1.01120        -0.61390
| 12>    C       -1.23860         1.50600         0.56490
| 13>    C       -2.44660         1.03380         1.02450
| 14>    H       -2.88210         1.40790         1.93720
| 15>    H       -0.70960         2.26360         1.12430
| 16>    C        0.64890         1.50470        -1.08490
| 17>    H        0.71500         2.59330        -1.03820
| 18>    H        0.86210         1.16500        -2.10200
| 19>    O        1.73740         1.07880        -0.21800
| 20>    C        2.06660        -0.22080        -0.23060
| 21>    F        1.06970        -1.02680         0.24130
| 22>    F        2.30290        -0.67920        -1.49170
| 23>    C        3.34590        -0.44530         0.65430
| 24>    O        3.89150        -1.49910         0.71100
| 25>    O        3.72350         0.63920         1.30790
| 26>    H        3.15030         1.40170         1.11010
| 27>    H       -0.95300        -0.37190        -2.22420
| 28>    H       -3.09420        -1.21060        -1.43440
| 29>    H       -4.48840        -2.28890         0.13930
| 30>    H       -5.35990        -1.04550        -0.80410
| 31> *
| 32>
| 33>                          ****END OF INPUT****
 Total Charge           Charge          ....    0
 Multiplicity           Mult            ....    1
 Number of Electrons    NEL             ....  120
Dispersion correction           -0.010012750
FINAL SINGLE POINT ENERGY      -886.769871518821
Dispersion correction            ... done
Dispersion correction           -0.009835199
FINAL SINGLE POINT ENERGY      -886.772359253162
Dispersion correction            ... done
Dispersion correction           -0.009820223
FINAL SINGLE POINT ENERGY      -886.772707100178
Dispersion correction            ... done
FINAL SINGLE POINT ENERGY      -886.772735024749
FINAL SINGLE POINT ENERGY      -886.772818931870
FINAL SINGLE POINT ENERGY      -886.772824756582
FINAL SINGLE POINT ENERGY      -886.772830194183
FINAL SINGLE POINT ENERGY      -886.772837630978
FINAL SINGLE POINT ENERGY      -886.772848152265
FINAL SINGLE POINT ENERGY      -886.772772017745
FINAL SINGLE POINT ENERGY      -886.773789030575
FINAL SINGLE POINT ENERGY      -886.773894712178
FINAL SINGLE POINT ENERGY      -886.774011365759
FINAL SINGLE POINT ENERGY      -886.774119520249
FINAL SINGLE POINT ENERGY      -886.774162243247
FINAL SINGLE POINT ENERGY      -886.774206273848
FINAL SINGLE POINT ENERGY      -886.774229459174
Dispersion correction            ... done
Dispersion correction           -0.009633842
FINAL SINGLE POINT ENERGY      -886.774253768014
Dispersion correction            ... done
Dispersion correction           -0.009621733
FINAL SINGLE POINT ENERGY      -886.774256312116
Dispersion correction            ... done
                    ***********************HURRAY********************

CARTESIAN COORDINATES (ANGSTROEM)
---------------------------------
  C     -5.095167   -1.301130    0.422993
  H     -6.103023   -1.314473    0.854571
  O     -4.552858   -0.038037    0.710040
  C     -3.306687    0.253263    0.289844
  C     -2.492705   -0.622150   -0.439986
  C     -1.216392   -0.216987   -0.824783
  C     -0.726203    1.047626   -0.496112
  C     -1.549315    1.911374    0.236056
  C     -2.824110    1.526228    0.623219
  H     -3.473568    2.192862    1.193657
  H     -1.185148    2.906141    0.508763
  C      0.666778    1.446419   -0.889498
  H      0.832509    2.522300   -0.739468
  H      0.871748    1.207365   -1.942534
  O      1.627000    0.751248   -0.062458
  C      2.592385    0.037481   -0.676566
  F      2.056369   -0.889987   -1.513605
  F      3.377765    0.812154   -1.441990
  C      3.440759   -0.696471    0.392971
  O      4.498320   -1.175273    0.128141
  O      2.857890   -0.763749    1.581884
  H      2.036751   -0.245784    1.550621
  H     -0.583890   -0.908364   -1.388882
  H     -2.841443   -1.617549   -0.716178
  H     -4.502308   -2.113177    0.878036
  H     -5.171357   -1.476131   -0.663932

 Multiplicity           Mult            ....    1
 Number of Electrons    NEL             ....  120
 Basis Dimension        Dim             ....  274

ORBITAL ENERGIES
----------------

  NO   OCC          E(Eh)            E(eV)
   0   2.0000     -24.825512      -675.5365
   1   2.0000     -24.824060      -675.4970
   2   2.0000     -19.310228      -525.4580
   3   2.0000     -19.300458      -525.1922
   4   2.0000     -19.286681      -524.8173
   5   2.0000     -19.241557      -523.5894
   6   2.0000     -10.521588      -286.3070
   7   2.0000     -10.435776      -283.9719
   8   2.0000     -10.376060      -282.3470
   9   2.0000     -10.370201      -282.1875
  10   2.0000     -10.357898      -281.8527
  11   2.0000     -10.314799      -280.6800
  12   2.0000     -10.313918      -280.6560
  13   2.0000     -10.310281      -280.5570
  14   2.0000     -10.307791      -280.4893
  15   2.0000     -10.303164      -280.3633
  16   2.0000      -1.398266       -38.0487
  17   2.0000      -1.321095       -35.9488
  18   2.0000      -1.234412       -33.5901
  19   2.0000      -1.204408       -32.7736
  20   2.0000      -1.195550       -32.5326
  21   2.0000      -1.144342       -31.1391
  22   2.0000      -0.990017       -26.9397
  23   2.0000      -0.919558       -25.0225
  24   2.0000      -0.879022       -23.9194
  25   2.0000      -0.867502       -23.6059
  26   2.0000      -0.825025       -22.4501
  27   2.0000      -0.783273       -21.3140
  28   2.0000      -0.740943       -20.1621
  29   2.0000      -0.737553       -20.0698
  30   2.0000      -0.727920       -19.8077
  31   2.0000      -0.707147       -19.2425
  32   2.0000      -0.695981       -18.9386
  33   2.0000      -0.685288       -18.6476
  34   2.0000      -0.656486       -17.8639
  35   2.0000      -0.620456       -16.8835
  36   2.0000      -0.601954       -16.3800
  37   2.0000      -0.590241       -16.0613
  38   2.0000      -0.584334       -15.9005
  39   2.0000      -0.577370       -15.7110
  40   2.0000      -0.567672       -15.4471
  41   2.0000      -0.562695       -15.3117
  42   2.0000      -0.558048       -15.1853
  43   2.0000      -0.556115       -15.1327
  44   2.0000      -0.545474       -14.8431
  45   2.0000      -0.534855       -14.5541
  46   2.0000      -0.524249       -14.2655
  47   2.0000      -0.522048       -14.2056
  48   2.0000      -0.508348       -13.8329
  49   2.0000      -0.500577       -13.6214
  50   2.0000      -0.486449       -13.2370
  51   2.0000      -0.474966       -12.9245
  52   2.0000      -0.467527       -12.7221
  53   2.0000      -0.440284       -11.9807
  54   2.0000      -0.433952       -11.8084
  55   2.0000      -0.431050       -11.7295
  56   2.0000      -0.427548       -11.6342
  57   2.0000      -0.386927       -10.5288
  58   2.0000      -0.360945        -9.8218
  59   2.0000      -0.322316        -8.7707
  60   0.0000       0.047417         1.2903
  61   0.0000       0.056081         1.5260
  62   0.0000       0.073588         2.0024
  63   0.0000       0.137774         3.7490
  64   0.0000       0.146285         3.9806

MULLIKEN ATOMIC CHARGES
-----------------------
   0 C :    0.120889
   1 H :    0.062310
   2 O :   -0.325400
   3 C :    0.231776
   4 C :   -0.115729
   5 C :   -0.025962
   6 C :   -0.103646
   7 C :   -0.015524
   8 C :   -0.049317
   9 H :    0.023893
  10 H :    0.013877
  11 C :    0.269970
  12 H :    0.048723
  13 H :    0.062702
  14 O :   -0.398293
  15 C :    0.446589
  16 F :   -0.201508
  17 F :   -0.178007
  18 C :    0.164998
  19 O :   -0.188469
  20 O :   -0.169359
  21 H :    0.203759
  22 H :    0.023138
  23 H :    0.011254
  24 H :    0.043861
  25 H :    0.043473
Sum of atomic charges:   -0.0000000

LOEWDIN ATOMIC CHARGES
----------------------
   0 C :    0.070320
   1 H :    0.033495
   2 O :   -0.098555
   3 C :    0.060942
   4 C :   -0.080995
   5 C :   -0.004495
   6 C :   -0.087018
   7 C :   -0.011517
   8 C :   -0.051583
   9 H :    0.040083
  10 H :    0.033690
  11 C :    0.104581
  12 H :    0.032759
  13 H :    0.032656
  14 O :   -0.135408
  15 C :    0.113463
  16 F :   -0.085164
  17 F :   -0.064662
  18 C :    0.042682
  19 O :   -0.128884
  20 O :   -0.012924
  21 H :    0.091208
  22 H :    0.034206
  23 H :    0.033798
  24 H :    0.018907
  25 H :    0.018416

  Mayer bond orders larger than 0.100000
B(  0-C ,  1-H ) :   0.9799 B(  0-C ,  2-O ) :   0.9514 B(  0-C , 24-H ) :   0.9699
B(  0-C , 25-H ) :   0.9700 B(  2-O ,  3-C ) :   1.1368 B(  3-C ,  4-C ) :   1.3113
B(  3-C ,  8-C ) :   1.3618 B(  4-C ,  5-C ) :   1.3854 B(  4-C , 23-H ) :   0.9959
B(  5-C ,  6-C ) :   1.3995 B(  5-C , 22-H ) :   0.9887 B(  6-C ,  7-C ) :   1.3735
B(  6-C , 11-C ) :   1.0449 B(  7-C ,  8-C ) :   1.4186 B(  7-C , 10-H ) :   0.9892
B(  8-C ,  9-H ) :   0.9936 B( 11-C , 12-H ) :   0.9509 B( 11-C , 13-H ) :   0.9402
B( 11-C , 14-O ) :   0.8499 B( 14-O , 15-C ) :   1.1416 B( 15-C , 16-F ) :   1.0547
B( 15-C , 17-F ) :   1.1175 B( 15-C , 18-C ) :   0.8559 B( 18-C , 19-O ) :   2.1701
B( 18-C , 20-O ) :   1.2415 B( 20-O , 21-H ) :   0.9297

Dispersion correction           -0.009615159
FINAL SINGLE POINT ENERGY      -886.774263996566

DIPOLE MOMENT
-------------
                                X             Y             Z
Electronic contribution:     22.45917       0.01826      -3.57564
Nuclear contribution   :    -24.74705       0.45818       3.48898
                        -----------------------------------------
Total Dipole Moment    :     -2.28789       0.47645      -0.08666
                        -----------------------------------------
Magnitude (a.u.)       :      2.33857
Magnitude (Debye)      :      5.94418

Rotational constants in cm-1:     0.042003     0.007333     0.007029
Rotational constants in MHz :  1259.232578   219.841964   210.737108

                             ****ORCA TERMINATED NORMALLY****
TOTAL RUN TIME: 0 days 1 hours 53 minutes 2 seconds 139 msec
