                         Program Version 4.2.0 -  RELEASE  -
|  1> # ORCA input file
|  2> # -46.02442726
|  3> ! wB97X-D3 def2-SVP Opt
|  4> * xyz 0 1
|  5>    C       -3.78990        -0.55050         0.19030
|  6>    C       -2.97140        -1.08830        -0.78800
|  7>    C       -1.77730        -0.46830        -1.11470
|  8>    C       -1.39820         0.70060        -0.46940
|  9>    C       -2.22140         1.23380         0.51430
| 10>    C       -3.41150         0.61060         0.84340
| 11>    H       -4.04500         1.03100         1.61060
| 12>    H       -1.92160         2.13720         1.02500
| 13>    C       -0.08640         1.36440        -0.78890
| 14>    O        0.75060         1.22560         0.35130
| 15>    C        2.02340         1.82470         0.24750
| 16>    C        3.03460         0.96830        -0.52090
| 17>    C        3.05960        -0.45390         0.04590
| 18>    C        1.77640        -1.17560        -0.30750
| 19>    O        1.39910        -1.30030        -1.44820
| 20>    C        1.00340        -1.77850         0.85600
| 21>    O        1.08270        -1.03100         2.03800
| 22>    H        0.76730        -0.13900         1.82570
| 23>    H        1.44610        -2.75770         1.07430
| 24>    H       -0.03890        -1.93310         0.54320
| 25>    H        3.88000        -1.00790        -0.41580
| 26>    H        3.19630        -0.43920         1.12700
| 27>    H        4.01850         1.43090        -0.43660
| 28>    H        2.76520         0.92170        -1.57780
| 29>    H        2.36190         1.94690         1.28150
| 30>    H        1.93990         2.81780        -0.21500
| 31>    H        0.36990         0.89120        -1.66680
| 32>    H       -0.23340         2.43540        -1.00040
| 33>    H       -1.12940        -0.89620        -1.86530
| 34>    H       -3.26020        -1.99690        -1.29560
| 35>    H       -4.71980        -1.03670         0.44630
| 36> *
| 37>
| 38>                          ****END OF INPUT****
 Total Charge           Charge          ....    0
 Multiplicity           Mult            ....    1
 Number of Electrons    NEL             ....  112
Dispersion correction           -0.015766949
FINAL SINGLE POINT ENERGY      -691.883265193168
Dispersion correction            ... done
Dispersion correction           -0.015436350
FINAL SINGLE POINT ENERGY      -691.884649429982
Dispersion correction            ... done
Dispersion correction           -0.015876547
FINAL SINGLE POINT ENERGY      -691.885401451795
Dispersion correction            ... done
FINAL SINGLE POINT ENERGY      -691.885165716118
FINAL SINGLE POINT ENERGY      -691.885748035423
FINAL SINGLE POINT ENERGY      -691.886274234991
FINAL SINGLE POINT ENERGY      -691.886320870454
FINAL SINGLE POINT ENERGY      -691.886342981628
FINAL SINGLE POINT ENERGY      -691.886343633286
FINAL SINGLE POINT ENERGY      -691.886344858540
FINAL SINGLE POINT ENERGY      -691.886344427227
Dispersion correction            ... done
Dispersion correction           -0.015736068
FINAL SINGLE POINT ENERGY      -691.886343803077
Dispersion correction            ... done
Dispersion correction           -0.015728714
FINAL SINGLE POINT ENERGY      -691.886342830146
Dispersion correction            ... done
                    ***********************HURRAY********************

CARTESIAN COORDINATES (ANGSTROEM)
---------------------------------
  C     -3.828433   -0.537663    0.166825
  C     -2.955257   -1.103420   -0.759324
  C     -1.746564   -0.473815   -1.056687
  C     -1.406205    0.729985   -0.434837
  C     -2.285923    1.289019    0.498555
  C     -3.490577    0.659750    0.798768
  H     -4.172116    1.104922    1.528133
  H     -2.019450    2.226599    0.995116
  C     -0.090743    1.399661   -0.729060
  O      0.751924    1.259057    0.402063
  C      2.041121    1.825189    0.279338
  C      3.003736    0.963021   -0.531364
  C      3.088158   -0.472192   -0.005467
  C      1.815715   -1.248743   -0.305308
  O      1.441746   -1.412858   -1.445814
  C      1.039773   -1.818359    0.876990
  O      1.057813   -0.994694    2.001204
  H      0.694146   -0.141771    1.714868
  H      1.522191   -2.774268    1.149044
  H      0.021554   -2.057637    0.519379
  H      3.901820   -1.002464   -0.525765
  H      3.299275   -0.485061    1.073641
  H      3.997228    1.438464   -0.498547
  H      2.706351    0.933202   -1.592433
  H      2.415114    1.933357    1.309593
  H      1.965611    2.839447   -0.155552
  H      0.370367    0.937998   -1.618821
  H     -0.238161    2.477009   -0.936382
  H     -1.042267   -0.930963   -1.757820
  H     -3.211930   -2.044965   -1.251128
  H     -4.775516   -1.030809    0.400193

 Multiplicity           Mult            ....    1
 Number of Electrons    NEL             ....  112
 Basis Dimension        Dim             ....  290

ORBITAL ENERGIES
----------------

  NO   OCC          E(Eh)            E(eV)
   0   2.0000     -19.268146      -524.3129
   1   2.0000     -19.230607      -523.2914
   2   2.0000     -19.225495      -523.1523
   3   2.0000     -10.372826      -282.2589
   4   2.0000     -10.349511      -281.6245
   5   2.0000     -10.347496      -281.5697
   6   2.0000     -10.327819      -281.0342
   7   2.0000     -10.301264      -280.3117
   8   2.0000     -10.300540      -280.2919
   9   2.0000     -10.296895      -280.1927
  10   2.0000     -10.296451      -280.1807
  11   2.0000     -10.296029      -280.1692
  12   2.0000     -10.294846      -280.1370
  13   2.0000     -10.293647      -280.1044
  14   2.0000     -10.293481      -280.0999
  15   2.0000      -1.166077       -31.7306
  16   2.0000      -1.148470       -31.2515
  17   2.0000      -1.116927       -30.3931
  18   2.0000      -0.974356       -26.5136
  19   2.0000      -0.918307       -24.9884
  20   2.0000      -0.883332       -24.0367
  21   2.0000      -0.856912       -23.3177
  22   2.0000      -0.833751       -22.6875
  23   2.0000      -0.805739       -21.9253
  24   2.0000      -0.778180       -21.1754
  25   2.0000      -0.714616       -19.4457
  26   2.0000      -0.712556       -19.3896
  27   2.0000      -0.689030       -18.7495
  28   2.0000      -0.649291       -17.6681
  29   2.0000      -0.632177       -17.2024
  30   2.0000      -0.616693       -16.7811
  31   2.0000      -0.604104       -16.4385
  32   2.0000      -0.591885       -16.1060
  33   2.0000      -0.575635       -15.6638
  34   2.0000      -0.567654       -15.4466
  35   2.0000      -0.558482       -15.1971
  36   2.0000      -0.545624       -14.8472
  37   2.0000      -0.540145       -14.6981
  38   2.0000      -0.536294       -14.5933
  39   2.0000      -0.521526       -14.1914
  40   2.0000      -0.514537       -14.0013
  41   2.0000      -0.502510       -13.6740
  42   2.0000      -0.491006       -13.3610
  43   2.0000      -0.473294       -12.8790
  44   2.0000      -0.470900       -12.8139
  45   2.0000      -0.461283       -12.5521
  46   2.0000      -0.445473       -12.1219
  47   2.0000      -0.442075       -12.0295
  48   2.0000      -0.435339       -11.8462
  49   2.0000      -0.430918       -11.7259
  50   2.0000      -0.415897       -11.3171
  51   2.0000      -0.379931       -10.3384
  52   2.0000      -0.372081       -10.1248
  53   2.0000      -0.343170        -9.3381
  54   2.0000      -0.340839        -9.2747
  55   2.0000      -0.328907        -8.9500
  56   0.0000       0.057263         1.5582
  57   0.0000       0.064771         1.7625
  58   0.0000       0.068153         1.8545
  59   0.0000       0.138156         3.7594
  60   0.0000       0.152380         4.1465

MULLIKEN ATOMIC CHARGES
-----------------------
   0 C :   -0.014322
   1 C :   -0.019405
   2 C :   -0.025504
   3 C :   -0.131853
   4 C :   -0.009688
   5 C :   -0.017987
   6 H :    0.023235
   7 H :    0.012463
   8 C :    0.285778
   9 O :   -0.444846
  10 C :    0.182446
  11 C :   -0.102915
  12 C :    0.009003
  13 C :   -0.078739
  14 O :   -0.231474
  15 C :    0.248064
  16 O :   -0.338398
  17 H :    0.183798
  18 H :    0.043992
  19 H :    0.027907
  20 H :    0.060189
  21 H :    0.040187
  22 H :    0.043421
  23 H :    0.052430
  24 H :    0.041062
  25 H :    0.025740
  26 H :    0.031008
  27 H :    0.023406
  28 H :    0.033919
  29 H :    0.023197
  30 H :    0.023887
Sum of atomic charges:    0.0000000

LOEWDIN ATOMIC CHARGES
----------------------
   0 C :   -0.027248
   1 C :   -0.031004
   2 C :   -0.021069
   3 C :   -0.053945
   4 C :   -0.020124
   5 C :   -0.030634
   6 H :    0.033459
   7 H :    0.032220
   8 C :    0.085302
   9 O :   -0.163365
  10 C :    0.072252
  11 C :   -0.052424
  12 C :   -0.066991
  13 C :    0.071351
  14 O :   -0.166310
  15 C :    0.037509
  16 O :   -0.136305
  17 H :    0.055376
  18 H :    0.037829
  19 H :    0.019725
  20 H :    0.048752
  21 H :    0.030829
  22 H :    0.035931
  23 H :    0.030270
  24 H :    0.026028
  25 H :    0.015990
  26 H :    0.016169
  27 H :    0.017695
  28 H :    0.035293
  29 H :    0.034152
  30 H :    0.033287

  Mayer bond orders larger than 0.100000
B(  0-C ,  1-C ) :   1.4053 B(  0-C ,  5-C ) :   1.3901 B(  0-C , 30-H ) :   0.9889
B(  1-C ,  2-C ) :   1.3838 B(  1-C , 29-H ) :   0.9890 B(  2-C ,  3-C ) :   1.4253
B(  2-C , 28-H ) :   0.9800 B(  3-C ,  4-C ) :   1.3893 B(  3-C ,  8-C ) :   1.0290
B(  4-C ,  5-C ) :   1.4077 B(  4-C ,  7-H ) :   0.9916 B(  5-C ,  6-H ) :   0.9882
B(  8-C ,  9-O ) :   0.9410 B(  8-C , 26-H ) :   0.9380 B(  8-C , 27-H ) :   0.9333
B(  9-O , 10-C ) :   0.9596 B( 10-C , 11-C ) :   1.0610 B( 10-C , 24-H ) :   0.9585
B( 10-C , 25-H ) :   0.9498 B( 11-C , 12-C ) :   1.0595 B( 11-C , 22-H ) :   0.9469
B( 11-C , 23-H ) :   0.9446 B( 12-C , 13-C ) :   0.9562 B( 12-C , 20-H ) :   0.9270
B( 12-C , 21-H ) :   0.9413 B( 13-C , 14-O ) :   2.0864 B( 13-C , 15-C ) :   0.9556
B( 15-C , 16-O ) :   1.0545 B( 15-C , 18-H ) :   0.9283 B( 15-C , 19-H ) :   0.9350
B( 16-O , 17-H ) :   0.9491

Dispersion correction           -0.015730139
FINAL SINGLE POINT ENERGY      -691.886343345398

DIPOLE MOMENT
-------------
                                X             Y             Z
Electronic contribution:     -4.90856      -2.44746      -0.33663
Nuclear contribution   :      5.17072       3.22060       0.25600
                        -----------------------------------------
Total Dipole Moment    :      0.26217       0.77314      -0.08063
                        -----------------------------------------
Magnitude (a.u.)       :      0.82035
Magnitude (Debye)      :      2.08518

Rotational constants in cm-1:     0.034707     0.013683     0.012356
Rotational constants in MHz :  1040.489770   410.212696   370.436383

                             ****ORCA TERMINATED NORMALLY****
TOTAL RUN TIME: 0 days 1 hours 22 minutes 10 seconds 205 msec
