                         Program Version 4.2.0 -  RELEASE  -
|  1> # ORCA input file
|  2> # -34.38548412
|  3> ! wB97X-D3 def2-SVP Opt
|  4> * xyz 0 1
|  5>    C       -2.23930        -0.18520        -0.92060
|  6>    C       -2.35240        -0.05910         0.42930
|  7>    O       -1.26490        -0.54640         1.04590
|  8>    C       -0.42150        -0.97970         0.08070
|  9>    C       -0.98530        -0.79520        -1.14920
| 10>    H       -0.54670        -1.04930        -2.09230
| 11>    C        0.88270        -1.59310         0.48690
| 12>    O        1.98370        -1.14170        -0.27130
| 13>    C        2.47400         0.13570         0.05160
| 14>    C        1.61350         1.30370        -0.44790
| 15>    C        0.42680         1.61120         0.42210
| 16>    O       -0.61220         2.07820         0.04490
| 17>    H        0.61210         1.43180         1.50170
| 18>    H        2.23240         2.20640        -0.43860
| 19>    H        1.28770         1.12770        -1.47380
| 20>    H        3.45210         0.17720        -0.43480
| 21>    H        2.61730         0.22490         1.14030
| 22>    H        0.85700        -2.67560         0.31640
| 23>    H        1.04250        -1.40970         1.55960
| 24>    H       -3.12590         0.34720         1.04920
| 25>    H       -2.95130         0.12150        -1.65810
| 26> *
| 27>
| 28>                          ****END OF INPUT****
 Total Charge           Charge          ....    0
 Multiplicity           Mult            ....    1
 Number of Electrons    NEL             ....   82
Dispersion correction           -0.009182758
FINAL SINGLE POINT ENERGY      -535.944149270318
Dispersion correction            ... done
Dispersion correction           -0.008142962
FINAL SINGLE POINT ENERGY      -535.942200325804
Dispersion correction            ... done
Dispersion correction           -0.008623356
FINAL SINGLE POINT ENERGY      -535.946471092206
Dispersion correction            ... done
FINAL SINGLE POINT ENERGY      -535.941495192144
FINAL SINGLE POINT ENERGY      -535.947780029773
FINAL SINGLE POINT ENERGY      -535.947839596970
FINAL SINGLE POINT ENERGY      -535.948541838616
FINAL SINGLE POINT ENERGY      -535.948633756188
FINAL SINGLE POINT ENERGY      -535.948646076298
Dispersion correction            ... done
Dispersion correction           -0.009123271
FINAL SINGLE POINT ENERGY      -535.948650953007
Dispersion correction            ... done
Dispersion correction           -0.009124618
FINAL SINGLE POINT ENERGY      -535.948651457225
Dispersion correction            ... done
                    ***********************HURRAY********************

CARTESIAN COORDINATES (ANGSTROEM)
---------------------------------
  C     -2.324296   -0.268987   -0.914468
  C     -2.414144   -0.141836    0.436310
  O     -1.293487   -0.604038    1.028553
  C     -0.461187   -1.035823    0.050732
  C     -1.044945   -0.858216   -1.167615
  H     -0.603019   -1.110372   -2.129001
  C      0.869438   -1.588862    0.467725
  O      1.938523   -1.117612   -0.307598
  C      2.481837    0.127032    0.045336
  C      1.698102    1.352015   -0.422606
  C      0.499196    1.734253    0.413787
  O     -0.453407    2.337006   -0.000614
  H      0.569467    1.456772    1.499896
  H      2.378119    2.223086   -0.368756
  H      1.386748    1.257725   -1.473649
  H      3.480599    0.150487   -0.413835
  H      2.632369    0.179844    1.144317
  H      0.875356   -2.684556    0.354307
  H      1.015518   -1.370720    1.543693
  H     -3.176249    0.258927    1.099009
  H     -3.072238    0.034376   -1.643524

 Multiplicity           Mult            ....    1
 Number of Electrons    NEL             ....   82
 Basis Dimension        Dim             ....  204

ORBITAL ENERGIES
----------------

  NO   OCC          E(Eh)            E(eV)
   0   2.0000     -19.312742      -525.5264
   1   2.0000     -19.253044      -523.9020
   2   2.0000     -19.236110      -523.4412
   3   2.0000     -10.377943      -282.3982
   4   2.0000     -10.353740      -281.7396
   5   2.0000     -10.350971      -281.6642
   6   2.0000     -10.339035      -281.3394
   7   2.0000     -10.336785      -281.2782
   8   2.0000     -10.299698      -280.2690
   9   2.0000     -10.287069      -279.9254
  10   2.0000     -10.286520      -279.9105
  11   2.0000      -1.228890       -33.4398
  12   2.0000      -1.158819       -31.5331
  13   2.0000      -1.150690       -31.3119
  14   2.0000      -0.911848       -24.8127
  15   2.0000      -0.904934       -24.6245
  16   2.0000      -0.880506       -23.9598
  17   2.0000      -0.806062       -21.9341
  18   2.0000      -0.740543       -20.1512
  19   2.0000      -0.706922       -19.2363
  20   2.0000      -0.682084       -18.5605
  21   2.0000      -0.657866       -17.9014
  22   2.0000      -0.642913       -17.4946
  23   2.0000      -0.603665       -16.4266
  24   2.0000      -0.598952       -16.2983
  25   2.0000      -0.579735       -15.7754
  26   2.0000      -0.563615       -15.3367
  27   2.0000      -0.551882       -15.0175
  28   2.0000      -0.536424       -14.5968
  29   2.0000      -0.535153       -14.5623
  30   2.0000      -0.505348       -13.7512
  31   2.0000      -0.495676       -13.4880
  32   2.0000      -0.488996       -13.3063
  33   2.0000      -0.478196       -13.0124
  34   2.0000      -0.463851       -12.6220
  35   2.0000      -0.459344       -12.4994
  36   2.0000      -0.418215       -11.3802
  37   2.0000      -0.376359       -10.2413
  38   2.0000      -0.369646       -10.0586
  39   2.0000      -0.343941        -9.3591
  40   2.0000      -0.314238        -8.5508
  41   0.0000       0.060703         1.6518
  42   0.0000       0.092033         2.5043
  43   0.0000       0.138016         3.7556
  44   0.0000       0.147213         4.0059
  45   0.0000       0.158986         4.3262

MULLIKEN ATOMIC CHARGES
-----------------------
   0 C :   -0.047426
   1 C :    0.121900
   2 O :   -0.233940
   3 C :   -0.063335
   4 C :   -0.066031
   5 H :    0.023721
   6 C :    0.316586
   7 O :   -0.394908
   8 C :    0.166233
   9 C :   -0.080135
  10 C :    0.119140
  11 O :   -0.208536
  12 H :    0.008810
  13 H :    0.068269
  14 H :    0.066010
  15 H :    0.044180
  16 H :    0.009855
  17 H :    0.053858
  18 H :    0.018519
  19 H :    0.043541
  20 H :    0.033687
Sum of atomic charges:   -0.0000000

LOEWDIN ATOMIC CHARGES
----------------------
   0 C :   -0.076621
   1 C :    0.032667
   2 O :    0.004643
   3 C :   -0.023187
   4 C :   -0.073380
   5 H :    0.036165
   6 C :    0.067354
   7 O :   -0.163746
   8 C :    0.071410
   9 C :   -0.102773
  10 C :    0.105633
  11 O :   -0.133209
  12 H :   -0.010173
  13 H :    0.056095
  14 H :    0.047276
  15 H :    0.029867
  16 H :    0.009153
  17 H :    0.037408
  18 H :    0.019230
  19 H :    0.028742
  20 H :    0.037444

  Mayer bond orders larger than 0.100000
B(  0-C ,  1-C ) :   1.5889 B(  0-C ,  4-C ) :   1.2112 B(  0-C , 20-H ) :   0.9985
B(  1-C ,  2-O ) :   1.1162 B(  1-C , 19-H ) :   1.0002 B(  2-O ,  3-C ) :   1.1178
B(  3-C ,  4-C ) :   1.6185 B(  3-C ,  6-C ) :   1.0023 B(  4-C ,  5-H ) :   1.0110
B(  6-C ,  7-O ) :   1.0345 B(  6-C , 17-H ) :   0.9375 B(  6-C , 18-H ) :   0.9323
B(  7-O ,  8-C ) :   0.9992 B(  8-C ,  9-C ) :   1.0365 B(  8-C , 15-H ) :   0.9566
B(  8-C , 16-H ) :   0.9445 B(  9-C , 10-C ) :   0.9449 B(  9-C , 13-H ) :   0.9287
B(  9-C , 14-H ) :   0.9295 B( 10-C , 11-O ) :   2.1442 B( 10-C , 12-H ) :   0.9406

Dispersion correction           -0.009125511
FINAL SINGLE POINT ENERGY      -535.948651688758

DIPOLE MOMENT
-------------
                                X             Y             Z
Electronic contribution:     -4.55354      -0.45149       0.49999
Nuclear contribution   :      5.13582       0.25357      -0.23263
                        -----------------------------------------
Total Dipole Moment    :      0.58228      -0.19792       0.26736
                        -----------------------------------------
Magnitude (a.u.)       :      0.67060
Magnitude (Debye)      :      1.70452

Rotational constants in cm-1:     0.053889     0.034849     0.025764
Rotational constants in MHz :  1615.542957  1044.759355   772.380251

                             ****ORCA TERMINATED NORMALLY****
TOTAL RUN TIME: 0 days 0 hours 28 minutes 54 seconds 568 msec
