                         Program Version 4.2.0 -  RELEASE  -
|  1> # ORCA input file
|  2> # -53.64075382
|  3> ! wB97X-D3 def2-SVP Opt
|  4> * xyz 0 1
|  5>    C       -4.51640        -0.04110        -0.55700
|  6>    O       -3.13010         0.15070        -0.42250
|  7>    C       -2.78890         1.44140         0.06230
|  8>    C       -1.29050         1.52060         0.14990
|  9>    C       -0.53930         1.92160        -0.94640
| 10>    C        0.84320         1.90740        -0.89290
| 11>    C        1.50530         1.48510         0.25270
| 12>    C        0.74890         1.11500         1.35820
| 13>    C       -0.63170         1.13020         1.30850
| 14>    H       -1.20650         0.83230         2.17380
| 15>    H        1.24850         0.80370         2.26480
| 16>    C        3.01110         1.37740         0.30780
| 17>    N        3.52150         0.03200         0.52890
| 18>    H        2.99410        -0.41500         1.27250
| 19>    C        3.53570        -0.85270        -0.61370
| 20>    C        2.15750        -1.25820        -1.16380
| 21>    O        1.36420        -1.71710        -0.09240
| 22>    C        0.03020        -1.96750        -0.46260
| 23>    C       -0.75820        -2.35980         0.78890
| 24>    O       -2.13840        -2.40230         0.55910
| 25>    H       -2.42670        -1.52870         0.24420
| 26>    H       -0.46580        -3.35920         1.11880
| 27>    H       -0.50680        -1.64430         1.58410
| 28>    H       -0.01890        -2.76830        -1.21590
| 29>    H       -0.41880        -1.06000        -0.89970
| 30>    H        1.66720        -0.40080        -1.64710
| 31>    H        2.27870        -2.04990        -1.92000
| 32>    H        4.10650        -0.37860        -1.41740
| 33>    H        4.06250        -1.75730        -0.29920
| 34>    H        3.37930         1.99070         1.13960
| 35>    H        3.45400         1.75880        -0.61600
| 36>    H        1.41460         2.21880        -1.75690
| 37>    H       -1.03990         2.23430        -1.85160
| 38>    H       -3.18040         2.20670        -0.62470
| 39>    H       -3.24670         1.59670         1.05120
| 40>    H       -5.02700         0.07620         0.40620
| 41>    H       -4.65530        -1.05700        -0.92030
| 42>    H       -4.94510         0.66990        -1.27300
| 43> *
| 44>
| 45>                          ****END OF INPUT****
 Total Charge           Charge          ....    0
 Multiplicity           Mult            ....    1
 Number of Electrons    NEL             ....  130
Dispersion correction           -0.020435987
FINAL SINGLE POINT ENERGY      -787.632950422717
Dispersion correction            ... done
Dispersion correction           -0.020248871
FINAL SINGLE POINT ENERGY      -787.635832688787
Dispersion correction            ... done
Dispersion correction           -0.020019776
FINAL SINGLE POINT ENERGY      -787.635730381137
Dispersion correction            ... done
FINAL SINGLE POINT ENERGY      -787.634614024257
FINAL SINGLE POINT ENERGY      -787.636563458251
FINAL SINGLE POINT ENERGY      -787.636614575945
FINAL SINGLE POINT ENERGY      -787.636715781361
FINAL SINGLE POINT ENERGY      -787.636739441656
FINAL SINGLE POINT ENERGY      -787.636763210793
FINAL SINGLE POINT ENERGY      -787.636796841435
FINAL SINGLE POINT ENERGY      -787.636942510156
FINAL SINGLE POINT ENERGY      -787.636967104187
FINAL SINGLE POINT ENERGY      -787.637067195220
FINAL SINGLE POINT ENERGY      -787.637184508490
FINAL SINGLE POINT ENERGY      -787.637190922041
FINAL SINGLE POINT ENERGY      -787.637221658918
FINAL SINGLE POINT ENERGY      -787.637253595665
Dispersion correction            ... done
Dispersion correction           -0.020223179
FINAL SINGLE POINT ENERGY      -787.637256248095
Dispersion correction            ... done
Dispersion correction           -0.020217823
FINAL SINGLE POINT ENERGY      -787.637257133234
Dispersion correction            ... done
                    ***********************HURRAY********************

CARTESIAN COORDINATES (ANGSTROEM)
---------------------------------
  C     -4.697038    0.030211    0.179295
  O     -3.302752    0.176480    0.166278
  C     -2.850568    1.453438   -0.215432
  C     -1.354416    1.508062   -0.054170
  C     -0.521477    1.979710   -1.067256
  C      0.866034    1.962061   -0.910749
  C      1.453336    1.459072    0.250990
  C      0.608014    1.016667    1.275678
  C     -0.771934    1.043137    1.130409
  H     -1.415831    0.670646    1.931226
  H      1.037569    0.626604    2.203711
  C      2.964128    1.359994    0.420201
  N      3.509016    0.043986    0.692348
  H      3.005980   -0.407963    1.451100
  C      3.652071   -0.880103   -0.413157
  C      2.375057   -1.306136   -1.129472
  O      1.471213   -1.817847   -0.191657
  C      0.158272   -1.913301   -0.674092
  C     -0.756878   -2.426081    0.427361
  O     -2.096650   -2.395458    0.030397
  H     -2.389061   -1.470223    0.008174
  H     -0.495035   -3.468789    0.668680
  H     -0.565768   -1.829745    1.340431
  H      0.099594   -2.588007   -1.552070
  H     -0.199274   -0.916598   -1.004486
  H      1.923383   -0.444668   -1.658851
  H      2.618653   -2.064060   -1.903222
  H      4.339874   -0.446020   -1.160871
  H      4.150664   -1.782237   -0.022132
  H      3.257274    2.028709    1.249103
  H      3.458743    1.761093   -0.480024
  H      1.503368    2.318580   -1.725974
  H     -0.954827    2.343792   -2.003595
  H     -3.132745    1.673050   -1.263343
  H     -3.337098    2.221375    0.420046
  H     -5.167174    0.730311    0.894535
  H     -4.915060   -0.999931    0.489667
  H     -5.137056    0.201889   -0.820678

 Multiplicity           Mult            ....    1
 Number of Electrons    NEL             ....  130
 Basis Dimension        Dim             ....  343

ORBITAL ENERGIES
----------------

  NO   OCC          E(Eh)            E(eV)
   0   2.0000     -19.268672      -524.3272
   1   2.0000     -19.233470      -523.3693
   2   2.0000     -19.204620      -522.5843
   3   2.0000     -14.407689      -392.0532
   4   2.0000     -10.354258      -281.7537
   5   2.0000     -10.346201      -281.5344
   6   2.0000     -10.321783      -280.8700
   7   2.0000     -10.315769      -280.7063
   8   2.0000     -10.314185      -280.6632
   9   2.0000     -10.309586      -280.5381
  10   2.0000     -10.305368      -280.4233
  11   2.0000     -10.304518      -280.4002
  12   2.0000     -10.301493      -280.3179
  13   2.0000     -10.300040      -280.2783
  14   2.0000     -10.298428      -280.2345
  15   2.0000     -10.298004      -280.2229
  16   2.0000     -10.296875      -280.1922
  17   2.0000      -1.168604       -31.7993
  18   2.0000      -1.139422       -31.0052
  19   2.0000      -1.096375       -29.8339
  20   2.0000      -1.013578       -27.5809
  21   2.0000      -0.977054       -26.5870
  22   2.0000      -0.901436       -24.5293
  23   2.0000      -0.865311       -23.5463
  24   2.0000      -0.859802       -23.3964
  25   2.0000      -0.836666       -22.7668
  26   2.0000      -0.804295       -21.8860
  27   2.0000      -0.774751       -21.0820
  28   2.0000      -0.746775       -20.3208
  29   2.0000      -0.720563       -19.6075
  30   2.0000      -0.707595       -19.2546
  31   2.0000      -0.692267       -18.8376
  32   2.0000      -0.682576       -18.5738
  33   2.0000      -0.629482       -17.1291
  34   2.0000      -0.611900       -16.6507
  35   2.0000      -0.607813       -16.5394
  36   2.0000      -0.600806       -16.3488
  37   2.0000      -0.594649       -16.1812
  38   2.0000      -0.589116       -16.0307
  39   2.0000      -0.574276       -15.6268
  40   2.0000      -0.560431       -15.2501
  41   2.0000      -0.554734       -15.0951
  42   2.0000      -0.548366       -14.9218
  43   2.0000      -0.537101       -14.6153
  44   2.0000      -0.527499       -14.3540
  45   2.0000      -0.522816       -14.2266
  46   2.0000      -0.509671       -13.8689
  47   2.0000      -0.503655       -13.7051
  48   2.0000      -0.497764       -13.5449
  49   2.0000      -0.485101       -13.2003
  50   2.0000      -0.472496       -12.8573
  51   2.0000      -0.461765       -12.5653
  52   2.0000      -0.456150       -12.4125
  53   2.0000      -0.451804       -12.2942
  54   2.0000      -0.441956       -12.0262
  55   2.0000      -0.437830       -11.9140
  56   2.0000      -0.432531       -11.7698
  57   2.0000      -0.409470       -11.1423
  58   2.0000      -0.391410       -10.6508
  59   2.0000      -0.376504       -10.2452
  60   2.0000      -0.354122        -9.6361
  61   2.0000      -0.343871        -9.3572
  62   2.0000      -0.335838        -9.1386
  63   2.0000      -0.332363        -9.0441
  64   2.0000      -0.305860        -8.3229
  65   0.0000       0.056298         1.5319
  66   0.0000       0.060132         1.6363
  67   0.0000       0.134841         3.6692
  68   0.0000       0.144195         3.9237
  69   0.0000       0.151260         4.1160

MULLIKEN ATOMIC CHARGES
-----------------------
   0 C :    0.137607
   1 O :   -0.430700
   2 C :    0.291037
   3 C :   -0.123274
   4 C :   -0.020050
   5 C :   -0.034416
   6 C :   -0.084254
   7 C :   -0.018078
   8 C :   -0.022040
   9 H :    0.020774
  10 H :    0.008980
  11 C :    0.184469
  12 N :   -0.309491
  13 H :    0.117995
  14 C :    0.067465
  15 C :    0.179590
  16 O :   -0.422528
  17 C :    0.148399
  18 C :    0.185335
  19 O :   -0.368162
  20 H :    0.173631
  21 H :    0.021302
  22 H :   -0.000415
  23 H :    0.010534
  24 H :   -0.002797
  25 H :   -0.004979
  26 H :    0.011825
  27 H :    0.022116
  28 H :    0.036892
  29 H :    0.042312
  30 H :    0.009165
  31 H :    0.008882
  32 H :    0.004075
  33 H :    0.010918
  34 H :    0.029161
  35 H :    0.027317
  36 H :    0.064861
  37 H :    0.026541
Sum of atomic charges:   -0.0000000

LOEWDIN ATOMIC CHARGES
----------------------
   0 C :    0.065311
   1 O :   -0.158058
   2 C :    0.086096
   3 C :   -0.057236
   4 C :   -0.030652
   5 C :   -0.036299
   6 C :   -0.040167
   7 C :   -0.021990
   8 C :   -0.018647
   9 H :    0.033544
  10 H :    0.028486
  11 C :    0.026996
  12 N :   -0.108528
  13 H :    0.056762
  14 C :    0.005622
  15 C :    0.048716
  16 O :   -0.175638
  17 C :    0.049139
  18 C :    0.056642
  19 O :   -0.152715
  20 H :    0.046129
  21 H :    0.016934
  22 H :    0.001170
  23 H :    0.005870
  24 H :    0.003311
  25 H :    0.002837
  26 H :    0.008150
  27 H :    0.023866
  28 H :    0.027775
  29 H :    0.033046
  30 H :    0.024309
  31 H :    0.029669
  32 H :    0.029703
  33 H :    0.013456
  34 H :    0.019314
  35 H :    0.012548
  36 H :    0.032363
  37 H :    0.012165

  Mayer bond orders larger than 0.100000
B(  0-C ,  1-O ) :   0.9513 B(  0-C , 35-H ) :   0.9717 B(  0-C , 36-H ) :   0.9808
B(  0-C , 37-H ) :   0.9701 B(  1-O ,  2-C ) :   0.9704 B(  2-C ,  3-C ) :   1.0203
B(  2-C , 33-H ) :   0.9424 B(  2-C , 34-H ) :   0.9338 B(  3-C ,  4-C ) :   1.4177
B(  3-C ,  8-C ) :   1.3740 B(  4-C ,  5-C ) :   1.3809 B(  4-C , 32-H ) :   0.9883
B(  5-C ,  6-C ) :   1.4221 B(  5-C , 31-H ) :   0.9833 B(  6-C ,  7-C ) :   1.3688
B(  6-C , 11-C ) :   0.9858 B(  7-C ,  8-C ) :   1.4223 B(  7-C , 10-H ) :   0.9879
B(  8-C ,  9-H ) :   0.9929 B( 11-C , 12-N ) :   1.0833 B( 11-C , 29-H ) :   0.9459
B( 11-C , 30-H ) :   0.9459 B( 12-N , 13-H ) :   0.9516 B( 12-N , 14-C ) :   1.0644
B( 14-C , 15-C ) :   1.0449 B( 14-C , 27-H ) :   0.9506 B( 14-C , 28-H ) :   0.9569
B( 15-C , 16-O ) :   0.9808 B( 15-C , 25-H ) :   0.9279 B( 15-C , 26-H ) :   0.9402
B( 16-O , 17-C ) :   0.9597 B( 17-C , 18-C ) :   1.0466 B( 17-C , 23-H ) :   0.9395
B( 17-C , 24-H ) :   0.9462 B( 18-C , 19-O ) :   1.0288 B( 18-C , 21-H ) :   0.9493
B( 18-C , 22-H ) :   0.9499 B( 19-O , 20-H ) :   0.9424

Dispersion correction           -0.020210642
FINAL SINGLE POINT ENERGY      -787.637257231794

DIPOLE MOMENT
-------------
                                X             Y             Z
Electronic contribution:      1.35344       2.72961       2.18175
Nuclear contribution   :     -2.00148      -1.59570      -2.54194
                        -----------------------------------------
Total Dipole Moment    :     -0.64804       1.13391      -0.36020
                        -----------------------------------------
Magnitude (a.u.)       :      1.35479
Magnitude (Debye)      :      3.44360

Rotational constants in cm-1:     0.024068     0.010881     0.008475
Rotational constants in MHz :   721.532159   326.197854   254.059681

                             ****ORCA TERMINATED NORMALLY****
TOTAL RUN TIME: 0 days 3 hours 35 minutes 10 seconds 391 msec
