                         Program Version 4.2.0 -  RELEASE  -
|  1> # ORCA input file
|  2> # -50.72278630
|  3> ! wB97X-D3 def2-SVP Opt
|  4> * xyz 0 1
|  5>    C        2.33230         2.95760         0.28040
|  6>    H        3.35660         3.13230         0.59760
|  7>    H        2.18950         3.37510        -0.71350
|  8>    H        1.66640         3.46950         0.97080
|  9>    C        2.03540         1.45520         0.26030
| 10>    C        2.93560         0.73000        -0.74730
| 11>    H        3.93470         1.16580        -0.72710
| 12>    H        2.51160         0.87710        -1.74170
| 13>    C        3.05300        -0.76980        -0.44930
| 14>    N        1.78850        -1.44250        -0.41240
| 15>    C        0.98030        -1.81900         0.60190
| 16>    O        1.11380        -1.78600         1.79800
| 17>    C       -0.09880        -2.28900        -0.37360
| 18>    H       -1.05160        -1.77840        -0.27380
| 19>    H       -0.24810        -3.36510        -0.37970
| 20>    C        0.83750        -1.74810        -1.46550
| 21>    H        0.46170        -0.86000        -1.97680
| 22>    H        1.20840        -2.47620        -2.19120
| 23>    H        3.51270        -0.91500         0.53240
| 24>    H        3.68540        -1.24400        -1.20940
| 25>    O        0.69830         1.19600        -0.12850
| 26>    C       -0.25610         1.29660         0.90480
| 27>    C       -1.58600         0.80680         0.40110
| 28>    C       -2.43770         0.09450         1.23570
| 29>    C       -3.66160        -0.35210         0.76850
| 30>    C       -4.04190        -0.09960        -0.53890
| 31>    C       -3.19480         0.60630        -1.37650
| 32>    C       -1.97530         1.06150        -0.90750
| 33>    H       -1.30810         1.61020        -1.55410
| 34>    H       -3.48650         0.80470        -2.39770
| 35>    H       -4.99460        -0.45380        -0.90420
| 36>    H       -4.31690        -0.90560         1.42500
| 37>    H       -2.13520        -0.11830         2.25050
| 38>    H        0.06040         0.69830         1.77170
| 39>    H       -0.35930         2.34450         1.23650
| 40>    H        2.20690         1.03960         1.26640
| 41> *
| 42>
| 43>                          ****END OF INPUT****
 Total Charge           Charge          ....    0
 Multiplicity           Mult            ....    1
 Number of Electrons    NEL             ....  126
Dispersion correction           -0.019200001
FINAL SINGLE POINT ENERGY      -749.386119322246
Dispersion correction            ... done
Dispersion correction           -0.019048001
FINAL SINGLE POINT ENERGY      -749.389257137593
Dispersion correction            ... done
Dispersion correction           -0.019398095
FINAL SINGLE POINT ENERGY      -749.389356006669
Dispersion correction            ... done
FINAL SINGLE POINT ENERGY      -749.389893105663
FINAL SINGLE POINT ENERGY      -749.390053367589
FINAL SINGLE POINT ENERGY      -749.390193047498
FINAL SINGLE POINT ENERGY      -749.390277644028
FINAL SINGLE POINT ENERGY      -749.390354442899
FINAL SINGLE POINT ENERGY      -749.390378630181
FINAL SINGLE POINT ENERGY      -749.390392722465
Dispersion correction            ... done
Dispersion correction           -0.019303864
FINAL SINGLE POINT ENERGY      -749.390397469310
Dispersion correction            ... done
Dispersion correction           -0.019307606
FINAL SINGLE POINT ENERGY      -749.390397819058
Dispersion correction            ... done
                    ***********************HURRAY********************

CARTESIAN COORDINATES (ANGSTROEM)
---------------------------------
  C      2.272801    2.995488    0.004973
  H      3.293124    3.297586    0.284830
  H      2.117756    3.226856   -1.060141
  H      1.571267    3.606867    0.591412
  C      2.052152    1.507252    0.255038
  C      2.985255    0.638028   -0.582409
  H      4.011387    1.029561   -0.487294
  H      2.706731    0.752183   -1.644725
  C      3.010847   -0.843527   -0.194893
  N      1.776977   -1.552210   -0.402417
  C      0.762294   -1.816652    0.473689
  O      0.690696   -1.701430    1.672234
  C     -0.173812   -2.233739   -0.664339
  H     -1.105050   -1.654366   -0.714434
  H     -0.395639   -3.309745   -0.687558
  C      0.967138   -1.765645   -1.597277
  H      0.734243   -0.832877   -2.135902
  H      1.375252   -2.514218   -2.295785
  H      3.242744   -0.947145    0.877352
  H      3.818794   -1.351796   -0.748164
  O      0.724521    1.138114   -0.062894
  C     -0.214724    1.321685    0.969019
  C     -1.555446    0.823654    0.495639
  C     -2.326372   -0.023120    1.294473
  C     -3.558780   -0.493745    0.841241
  C     -4.024991   -0.131009   -0.420835
  C     -3.254343    0.707122   -1.228152
  C     -2.028490    1.183123   -0.770831
  H     -1.412460    1.825462   -1.405025
  H     -3.611974    0.990698   -2.221337
  H     -4.986949   -0.505590   -0.779649
  H     -4.151321   -1.159776    1.473597
  H     -1.938826   -0.346811    2.263791
  H      0.093601    0.760125    1.869219
  H     -0.289582    2.393465    1.244428
  H      2.237681    1.285231    1.326025

 Multiplicity           Mult            ....    1
 Number of Electrons    NEL             ....  126
 Basis Dimension        Dim             ....  333

ORBITAL ENERGIES
----------------

  NO   OCC          E(Eh)            E(eV)
   0   2.0000     -19.243142      -523.6325
   1   2.0000     -19.199419      -522.4428
   2   2.0000     -14.444430      -393.0529
   3   2.0000     -10.375631      -282.3353
   4   2.0000     -10.341612      -281.4096
   5   2.0000     -10.333068      -281.1771
   6   2.0000     -10.325407      -280.9686
   7   2.0000     -10.323049      -280.9044
   8   2.0000     -10.294020      -280.1145
   9   2.0000     -10.293097      -280.0894
  10   2.0000     -10.292040      -280.0606
  11   2.0000     -10.291363      -280.0422
  12   2.0000     -10.290724      -280.0248
  13   2.0000     -10.289051      -279.9793
  14   2.0000     -10.288229      -279.9569
  15   2.0000     -10.287371      -279.9336
  16   2.0000     -10.284751      -279.8623
  17   2.0000      -1.148534       -31.2532
  18   2.0000      -1.135919       -30.9099
  19   2.0000      -1.063512       -28.9396
  20   2.0000      -0.969130       -26.3714
  21   2.0000      -0.926830       -25.2203
  22   2.0000      -0.888509       -24.1776
  23   2.0000      -0.861379       -23.4393
  24   2.0000      -0.851341       -23.1662
  25   2.0000      -0.813331       -22.1319
  26   2.0000      -0.782995       -21.3064
  27   2.0000      -0.758166       -20.6307
  28   2.0000      -0.740941       -20.1620
  29   2.0000      -0.710860       -19.3435
  30   2.0000      -0.689466       -18.7613
  31   2.0000      -0.681738       -18.5510
  32   2.0000      -0.631046       -17.1716
  33   2.0000      -0.614698       -16.7268
  34   2.0000      -0.610214       -16.6048
  35   2.0000      -0.599372       -16.3097
  36   2.0000      -0.591488       -16.0952
  37   2.0000      -0.572471       -15.5777
  38   2.0000      -0.557730       -15.1766
  39   2.0000      -0.549816       -14.9612
  40   2.0000      -0.547279       -14.8922
  41   2.0000      -0.537488       -14.6258
  42   2.0000      -0.524242       -14.2654
  43   2.0000      -0.512649       -13.9499
  44   2.0000      -0.508640       -13.8408
  45   2.0000      -0.500512       -13.6196
  46   2.0000      -0.491619       -13.3776
  47   2.0000      -0.480295       -13.0695
  48   2.0000      -0.475777       -12.9466
  49   2.0000      -0.470700       -12.8084
  50   2.0000      -0.464796       -12.6477
  51   2.0000      -0.460457       -12.5297
  52   2.0000      -0.451021       -12.2729
  53   2.0000      -0.443891       -12.0789
  54   2.0000      -0.440032       -11.9739
  55   2.0000      -0.430441       -11.7129
  56   2.0000      -0.423908       -11.5351
  57   2.0000      -0.405215       -11.0265
  58   2.0000      -0.360667        -9.8142
  59   2.0000      -0.341372        -9.2892
  60   2.0000      -0.337355        -9.1799
  61   2.0000      -0.330428        -8.9914
  62   2.0000      -0.319890        -8.7046
  63   0.0000       0.067139         1.8269
  64   0.0000       0.072337         1.9684
  65   0.0000       0.119288         3.2460
  66   0.0000       0.138075         3.7572
  67   0.0000       0.154266         4.1978

MULLIKEN ATOMIC CHARGES
-----------------------
   0 C :    0.006087
   1 H :    0.029395
   2 H :    0.033497
   3 H :    0.031912
   4 C :    0.047423
   5 C :   -0.033127
   6 H :    0.030045
   7 H :    0.032330
   8 C :    0.149596
   9 N :   -0.386076
  10 C :    0.182296
  11 O :   -0.262945
  12 C :   -0.111868
  13 H :    0.074351
  14 H :    0.064239
  15 C :    0.153201
  16 H :    0.042981
  17 H :    0.030991
  18 H :    0.043013
  19 H :    0.034485
  20 O :   -0.415224
  21 C :    0.292478
  22 C :   -0.137075
  23 C :   -0.014653
  24 C :   -0.022528
  25 C :   -0.016935
  26 C :   -0.020529
  27 C :   -0.013552
  28 H :    0.010424
  29 H :    0.016346
  30 H :    0.017565
  31 H :    0.019812
  32 H :    0.021625
  33 H :    0.032683
  34 H :    0.023217
  35 H :    0.014521
Sum of atomic charges:    0.0000000

LOEWDIN ATOMIC CHARGES
----------------------
   0 C :   -0.070486
   1 H :    0.029139
   2 H :    0.029517
   3 H :    0.027366
   4 C :    0.058173
   5 C :   -0.054631
   6 H :    0.033778
   7 H :    0.028791
   8 C :    0.031067
   9 N :   -0.065636
  10 C :    0.070798
  11 O :   -0.219855
  12 C :   -0.054625
  13 H :    0.044613
  14 H :    0.040212
  15 C :    0.052144
  16 H :    0.018587
  17 H :    0.015058
  18 H :    0.036804
  19 H :    0.025946
  20 O :   -0.165505
  21 C :    0.080235
  22 C :   -0.044224
  23 C :   -0.022009
  24 C :   -0.032092
  25 C :   -0.036353
  26 C :   -0.034414
  27 C :   -0.024764
  28 H :    0.030038
  29 H :    0.030519
  30 H :    0.030593
  31 H :    0.032302
  32 H :    0.035519
  33 H :    0.017504
  34 H :    0.012883
  35 H :    0.013006

  Mayer bond orders larger than 0.100000
B(  0-C ,  1-H ) :   0.9626 B(  0-C ,  2-H ) :   0.9629 B(  0-C ,  3-H ) :   0.9632
B(  0-C ,  4-C ) :   1.0728 B(  4-C ,  5-C ) :   1.0198 B(  4-C , 20-O ) :   0.9602
B(  4-C , 35-H ) :   0.9335 B(  5-C ,  6-H ) :   0.9463 B(  5-C ,  7-H ) :   0.9368
B(  5-C ,  8-C ) :   1.0767 B(  8-C ,  9-N ) :   0.9540 B(  8-C , 18-H ) :   0.9451
B(  8-C , 19-H ) :   0.9566 B(  9-N , 10-C ) :   1.1719 B(  9-N , 15-C ) :   0.9906
B( 10-C , 11-O ) :   2.0655 B( 10-C , 12-C ) :   0.9736 B( 12-C , 13-H ) :   0.9252
B( 12-C , 14-H ) :   0.9332 B( 12-C , 15-C ) :   1.0902 B( 15-C , 16-H ) :   0.9408
B( 15-C , 17-H ) :   0.9491 B( 20-O , 21-C ) :   0.9614 B( 21-C , 22-C ) :   1.0178
B( 21-C , 33-H ) :   0.9393 B( 21-C , 34-H ) :   0.9230 B( 22-C , 23-C ) :   1.4263
B( 22-C , 27-C ) :   1.3940 B( 23-C , 24-C ) :   1.3906 B( 23-C , 32-H ) :   0.9871
B( 24-C , 25-C ) :   1.4009 B( 24-C , 31-H ) :   0.9894 B( 25-C , 26-C ) :   1.3840
B( 25-C , 30-H ) :   0.9908 B( 26-C , 27-C ) :   1.4000 B( 26-C , 29-H ) :   0.9912
B( 27-C , 28-H ) :   0.9938

Dispersion correction           -0.019307609
FINAL SINGLE POINT ENERGY      -749.390397117628

DIPOLE MOMENT
-------------
                                X             Y             Z
Electronic contribution:     -6.86608      -5.83221       3.24675
Nuclear contribution   :      7.36354       6.25496      -4.14263
                        -----------------------------------------
Total Dipole Moment    :      0.49746       0.42275      -0.89588
                        -----------------------------------------
Magnitude (a.u.)       :      1.10850
Magnitude (Debye)      :      2.81759

Rotational constants in cm-1:     0.023607     0.012376     0.010042
Rotational constants in MHz :   707.718574   371.015081   301.050204

                             ****ORCA TERMINATED NORMALLY****
TOTAL RUN TIME: 0 days 1 hours 52 minutes 46 seconds 267 msec
