                         Program Version 4.2.0 -  RELEASE  -
|  1> # ORCA input file
|  2> # -60.40640231
|  3> ! wB97X-D3 def2-SVP Opt
|  4> * xyz 0 1
|  5>    C        4.04800         0.81750        -1.95900
|  6>    C        4.64630         1.13440        -0.59380
|  7>    C        3.80710         0.57210         0.55160
|  8>    N        2.49150         1.18460         0.57810
|  9>    H        2.58870         2.19220         0.67030
| 10>    C        1.62300         0.67860         1.62920
| 11>    H        1.71920        -0.41170         1.63770
| 12>    C        0.14600         1.03880         1.39330
| 13>    C       -0.07050         2.55100         1.38590
| 14>    H       -1.13260         2.78090         1.40680
| 15>    H        0.34520         2.98780         0.48120
| 16>    H        0.40140         3.00730         2.25430
| 17>    H       -0.40480         0.60050         2.22920
| 18>    C       -0.36340         0.40910         0.06630
| 19>    C       -0.12670        -1.10350         0.09480
| 20>    C        0.70580        -1.70060        -0.84200
| 21>    C        0.93320        -3.06520        -0.81670
| 22>    C        0.32660        -3.85440         0.14380
| 23>    C       -0.51850        -3.26940         1.07180
| 24>    C       -0.74590        -1.90570         1.04610
| 25>    H       -1.41830        -1.46860         1.76860
| 26>    H       -1.00570        -3.87920         1.81890
| 27>    H        0.50420        -4.91970         0.16630
| 28>    H        1.58660        -3.51300        -1.55190
| 29>    H        1.17130        -1.09020        -1.60070
| 30>    C       -1.85690         0.60150        -0.16350
| 31>    C       -2.78700         0.71020         0.86230
| 32>    C       -4.13640         0.83370         0.57830
| 33>    C       -4.57900         0.84820        -0.73210
| 34>    C       -3.65940         0.73740        -1.76040
| 35>    C       -2.31270         0.61110        -1.47660
| 36>    H       -1.59220         0.52860        -2.27440
| 37>    H       -3.99250         0.74630        -2.78810
| 38>    H       -5.63280         0.94540        -0.94880
| 39>    H       -4.84520         0.92050         1.38950
| 40>    H       -2.47810         0.70780         1.89680
| 41>    O        0.30990         1.00460        -1.01970
| 42>    H        1.25030         1.04820        -0.75140
| 43>    H        1.92380         1.04310         2.62680
| 44>    H        4.34710         0.71280         1.50460
| 45>    H        3.66410        -0.50370         0.40640
| 46>    H        5.64920         0.70810        -0.52600
| 47>    H        4.73710         2.21710        -0.47620
| 48>    H        3.06620         1.27090        -2.06320
| 49>    H        4.68980         1.19890        -2.74970
| 50>    H        3.94770        -0.25790        -2.08610
| 51> *
| 52>
| 53>                          ****END OF INPUT****
 Total Charge           Charge          ....    0
 Multiplicity           Mult            ....    1
 Number of Electrons    NEL             ....  154
Dispersion correction           -0.025154799
FINAL SINGLE POINT ENERGY      -868.212562606712
Dispersion correction            ... done
Dispersion correction           -0.024890994
FINAL SINGLE POINT ENERGY      -868.216805200163
Dispersion correction            ... done
Dispersion correction           -0.025102273
FINAL SINGLE POINT ENERGY      -868.216929977136
Dispersion correction            ... done
FINAL SINGLE POINT ENERGY      -868.217358204157
FINAL SINGLE POINT ENERGY      -868.217457060734
FINAL SINGLE POINT ENERGY      -868.217498857555
FINAL SINGLE POINT ENERGY      -868.217526547310
FINAL SINGLE POINT ENERGY      -868.217550850215
FINAL SINGLE POINT ENERGY      -868.217575212718
FINAL SINGLE POINT ENERGY      -868.217586242581
FINAL SINGLE POINT ENERGY      -868.217597427776
FINAL SINGLE POINT ENERGY      -868.217616812249
FINAL SINGLE POINT ENERGY      -868.217635178717
FINAL SINGLE POINT ENERGY      -868.217647391383
FINAL SINGLE POINT ENERGY      -868.217654416492
FINAL SINGLE POINT ENERGY      -868.217669441605
Dispersion correction            ... done
Dispersion correction           -0.025216703
FINAL SINGLE POINT ENERGY      -868.217673833045
Dispersion correction            ... done
Dispersion correction           -0.025219995
FINAL SINGLE POINT ENERGY      -868.217682425965
Dispersion correction            ... done
                    ***********************HURRAY********************

CARTESIAN COORDINATES (ANGSTROEM)
---------------------------------
  C      3.975715    0.529077   -1.920492
  C      4.593786    0.913441   -0.579439
  C      3.738421    0.540429    0.626892
  N      2.461648    1.239914    0.628230
  H      2.620804    2.246075    0.654621
  C      1.547860    0.844599    1.698642
  H      1.670681   -0.238676    1.847008
  C      0.077331    1.139568    1.364131
  C     -0.205973    2.640427    1.297381
  H     -1.281098    2.837496    1.181036
  H      0.298998    3.101719    0.435935
  H      0.133656    3.142147    2.217203
  H     -0.510253    0.721404    2.197960
  C     -0.360376    0.421223    0.046893
  C     -0.052064   -1.091094    0.107392
  C      0.571677   -1.705682   -0.981282
  C      0.866487   -3.068723   -0.964120
  C      0.541315   -3.844749    0.145244
  C     -0.086033   -3.244258    1.236033
  C     -0.379816   -1.883107    1.215115
  H     -0.864852   -1.438727    2.087476
  H     -0.348852   -3.839859    2.114249
  H      0.773962   -4.912607    0.161403
  H      1.353183   -3.526980   -1.829384
  H      0.822764   -1.094453   -1.849169
  C     -1.861706    0.601755   -0.218070
  C     -2.826400    0.342039    0.761935
  C     -4.183063    0.502646    0.491402
  C     -4.601684    0.923062   -0.769934
  C     -3.649348    1.182633   -1.751992
  C     -2.291445    1.026572   -1.477564
  H     -1.540176    1.239671   -2.238201
  H     -3.964335    1.514503   -2.744840
  H     -5.665984    1.049957   -0.984033
  H     -4.918182    0.299032    1.274557
  H     -2.527182    0.013817    1.760155
  O      0.327626    1.005373   -1.030044
  H      1.257379    1.082271   -0.720349
  H      1.805776    1.321200    2.666272
  H      4.310364    0.721929    1.560805
  H      3.519957   -0.541524    0.598390
  H      5.573688    0.421302   -0.464753
  H      4.803975    1.998438   -0.556552
  H      3.031205    1.061048   -2.106342
  H      4.655429    0.761990   -2.753680
  H      3.755836   -0.549919   -1.957524

 Multiplicity           Mult            ....    1
 Number of Electrons    NEL             ....  154
 Basis Dimension        Dim             ....  419

ORBITAL ENERGIES
----------------

  NO   OCC          E(Eh)            E(eV)
   0   2.0000     -19.213612      -522.8290
   1   2.0000     -14.436382      -392.8339
   2   2.0000     -10.345318      -281.5104
   3   2.0000     -10.318477      -280.7800
   4   2.0000     -10.317390      -280.7505
   5   2.0000     -10.295311      -280.1497
   6   2.0000     -10.292300      -280.0677
   7   2.0000     -10.292185      -280.0646
   8   2.0000     -10.290241      -280.0117
   9   2.0000     -10.289216      -279.9838
  10   2.0000     -10.288916      -279.9756
  11   2.0000     -10.288140      -279.9545
  12   2.0000     -10.287592      -279.9396
  13   2.0000     -10.285335      -279.8782
  14   2.0000     -10.284917      -279.8668
  15   2.0000     -10.282646      -279.8050
  16   2.0000     -10.282161      -279.7918
  17   2.0000     -10.281633      -279.7775
  18   2.0000     -10.279953      -279.7317
  19   2.0000     -10.276361      -279.6340
  20   2.0000     -10.275746      -279.6173
  21   2.0000      -1.119001       -30.4496
  22   2.0000      -1.031289       -28.0628
  23   2.0000      -0.966864       -26.3097
  24   2.0000      -0.958087       -26.0709
  25   2.0000      -0.914780       -24.8924
  26   2.0000      -0.886740       -24.1294
  27   2.0000      -0.861562       -23.4443
  28   2.0000      -0.848386       -23.0858
  29   2.0000      -0.846144       -23.0247
  30   2.0000      -0.843117       -22.9424
  31   2.0000      -0.796145       -21.6642
  32   2.0000      -0.775761       -21.1095
  33   2.0000      -0.756361       -20.5816
  34   2.0000      -0.713339       -19.4109
  35   2.0000      -0.700452       -19.0603
  36   2.0000      -0.698395       -19.0043
  37   2.0000      -0.692743       -18.8505
  38   2.0000      -0.684635       -18.6299
  39   2.0000      -0.656630       -17.8678
  40   2.0000      -0.624617       -16.9967
  41   2.0000      -0.619707       -16.8631
  42   2.0000      -0.604198       -16.4411
  43   2.0000      -0.584930       -15.9167
  44   2.0000      -0.570352       -15.5201
  45   2.0000      -0.566028       -15.4024
  46   2.0000      -0.552374       -15.0309
  47   2.0000      -0.549763       -14.9598
  48   2.0000      -0.542577       -14.7643
  49   2.0000      -0.538035       -14.6407
  50   2.0000      -0.529909       -14.4196
  51   2.0000      -0.526969       -14.3396
  52   2.0000      -0.516852       -14.0643
  53   2.0000      -0.513401       -13.9703
  54   2.0000      -0.507543       -13.8110
  55   2.0000      -0.500373       -13.6158
  56   2.0000      -0.493618       -13.4320
  57   2.0000      -0.485958       -13.2236
  58   2.0000      -0.474802       -12.9200
  59   2.0000      -0.467751       -12.7281
  60   2.0000      -0.459952       -12.5159
  61   2.0000      -0.456308       -12.4168
  62   2.0000      -0.447475       -12.1764
  63   2.0000      -0.444751       -12.1023
  64   2.0000      -0.438251       -11.9254
  65   2.0000      -0.431235       -11.7345
  66   2.0000      -0.429735       -11.6937
  67   2.0000      -0.428771       -11.6675
  68   2.0000      -0.424212       -11.5434
  69   2.0000      -0.414187       -11.2706
  70   2.0000      -0.402715       -10.9584
  71   2.0000      -0.359644        -9.7864
  72   2.0000      -0.339613        -9.2413
  73   2.0000      -0.337034        -9.1712
  74   2.0000      -0.328538        -8.9400
  75   2.0000      -0.324246        -8.8232
  76   2.0000      -0.314213        -8.5502
  77   0.0000       0.060101         1.6354
  78   0.0000       0.068901         1.8749
  79   0.0000       0.084405         2.2968
  80   0.0000       0.091437         2.4881
  81   0.0000       0.127339         3.4651

MULLIKEN ATOMIC CHARGES
-----------------------
   0 C :   -0.072290
   1 C :   -0.082449
   2 C :    0.078000
   3 N :   -0.380379
   4 H :    0.130680
   5 C :    0.160435
   6 H :    0.031140
   7 C :   -0.154237
   8 C :    0.019529
   9 H :    0.048633
  10 H :    0.027901
  11 H :    0.023446
  12 H :    0.016952
  13 C :    0.127392
  14 C :    0.006426
  15 C :   -0.034085
  16 C :   -0.012664
  17 C :   -0.016411
  18 C :   -0.018537
  19 C :   -0.043298
  20 H :   -0.003925
  21 H :    0.014361
  22 H :    0.018502
  23 H :    0.016563
  24 H :    0.015935
  25 C :    0.009079
  26 C :   -0.042049
  27 C :   -0.019962
  28 C :   -0.013191
  29 C :   -0.010396
  30 C :   -0.017248
  31 H :    0.024561
  32 H :    0.012909
  33 H :    0.015808
  34 H :    0.013168
  35 H :   -0.009806
  36 O :   -0.314540
  37 H :    0.176420
  38 H :    0.016306
  39 H :    0.015494
  40 H :    0.038565
  41 H :    0.035536
  42 H :    0.026907
  43 H :    0.051235
  44 H :    0.038392
  45 H :    0.035192
Sum of atomic charges:   -0.0000000

LOEWDIN ATOMIC CHARGES
----------------------
   0 C :   -0.068774
   1 C :   -0.055352
   2 C :    0.019093
   3 N :   -0.086952
   4 H :    0.064279
   5 C :    0.029096
   6 H :    0.026533
   7 C :   -0.050485
   8 C :   -0.059662
   9 H :    0.034880
  10 H :    0.024173
  11 H :    0.023090
  12 H :    0.024785
  13 C :    0.059124
  14 C :   -0.025364
  15 C :   -0.027211
  16 C :   -0.031863
  17 C :   -0.039272
  18 C :   -0.032504
  19 C :   -0.036813
  20 H :    0.023415
  21 H :    0.031249
  22 H :    0.030989
  23 H :    0.031225
  24 H :    0.030379
  25 C :   -0.018283
  26 C :   -0.034229
  27 C :   -0.033403
  28 C :   -0.038365
  29 C :   -0.030218
  30 C :   -0.020239
  31 H :    0.034144
  32 H :    0.029632
  33 H :    0.029988
  34 H :    0.030423
  35 H :    0.021572
  36 O :   -0.118614
  37 H :    0.026675
  38 H :    0.010399
  39 H :    0.007591
  40 H :    0.025597
  41 H :    0.030887
  42 H :    0.022769
  43 H :    0.028582
  44 H :    0.028974
  45 H :    0.028059

  Mayer bond orders larger than 0.100000
B(  0-C ,  1-C ) :   1.0768 B(  0-C , 43-H ) :   0.9714 B(  0-C , 44-H ) :   0.9714
B(  0-C , 45-H ) :   0.9746 B(  1-C ,  2-C ) :   1.0740 B(  1-C , 41-H ) :   0.9495
B(  1-C , 42-H ) :   0.9535 B(  2-C ,  3-N ) :   0.9785 B(  2-C , 39-H ) :   0.9484
B(  2-C , 40-H ) :   0.9505 B(  3-N ,  4-H ) :   0.9348 B(  3-N ,  5-C ) :   0.9812
B(  3-N , 37-H ) :   0.1581 B(  5-C ,  6-H ) :   0.9334 B(  5-C ,  7-C ) :   1.0624
B(  5-C , 38-H ) :   0.9489 B(  7-C ,  8-C ) :   1.0570 B(  7-C , 12-H ) :   0.8986
B(  7-C , 13-C ) :   0.9970 B(  8-C ,  9-H ) :   0.9632 B(  8-C , 10-H ) :   0.9631
B(  8-C , 11-H ) :   0.9694 B( 13-C , 14-C ) :   0.9108 B( 13-C , 25-C ) :   0.9261
B( 13-C , 36-O ) :   1.1102 B( 14-C , 15-C ) :   1.4458 B( 14-C , 19-C ) :   1.3746
B( 15-C , 16-C ) :   1.3672 B( 15-C , 24-H ) :   0.9801 B( 16-C , 17-C ) :   1.3972
B( 16-C , 23-H ) :   0.9896 B( 17-C , 18-C ) :   1.3878 B( 17-C , 22-H ) :   0.9890
B( 18-C , 19-C ) :   1.4149 B( 18-C , 21-H ) :   0.9867 B( 19-C , 20-H ) :   0.9883
B( 25-C , 26-C ) :   1.3786 B( 25-C , 30-C ) :   1.4496 B( 26-C , 27-C ) :   1.4183
B( 26-C , 35-H ) :   0.9886 B( 27-C , 28-C ) :   1.3907 B( 27-C , 34-H ) :   0.9860
B( 28-C , 29-C ) :   1.3979 B( 28-C , 33-H ) :   0.9898 B( 29-C , 30-C ) :   1.3665
B( 29-C , 32-H ) :   0.9897 B( 30-C , 31-H ) :   0.9831 B( 36-O , 37-H ) :   0.8851

Dispersion correction           -0.025219650
FINAL SINGLE POINT ENERGY      -868.217680203394

DIPOLE MOMENT
-------------
                                X             Y             Z
Electronic contribution:    -16.36873      -6.61013      -1.68260
Nuclear contribution   :     17.32966       6.78160       2.47924
                        -----------------------------------------
Total Dipole Moment    :      0.96093       0.17147       0.79664
                        -----------------------------------------
Magnitude (a.u.)       :      1.25993
Magnitude (Debye)      :      3.20249

Rotational constants in cm-1:     0.014193     0.007732     0.006405
Rotational constants in MHz :   425.510256   231.796638   192.030008

                             ****ORCA TERMINATED NORMALLY****
TOTAL RUN TIME: 0 days 4 hours 43 minutes 26 seconds 344 msec
