                         Program Version 4.2.0 -  RELEASE  -
|  1> # ORCA input file
|  2> # -49.75279326
|  3> ! wB97X-D3 def2-SVP Opt
|  4> * xyz 0 1
|  5>    C       -2.83200        -1.35120        -1.31410
|  6>    H       -2.56340        -1.91160        -2.20770
|  7>    H       -3.90530        -1.44630        -1.16240
|  8>    H       -2.60270        -0.30170        -1.47990
|  9>    C       -2.07350        -1.88620        -0.10070
| 10>    C       -2.43400        -3.35420         0.12690
| 11>    H       -2.12130        -3.95810        -0.72280
| 12>    H       -1.94740        -3.73840         1.02110
| 13>    H       -3.50910        -3.46860         0.24820
| 14>    H       -2.40370        -1.31700         0.77300
| 15>    C       -0.55050        -1.72480        -0.27520
| 16>    H       -0.06330        -2.65240         0.03020
| 17>    H       -0.33390        -1.56520        -1.33270
| 18>    C        0.07210        -0.57190         0.54380
| 19>    C        1.52710        -0.31850         0.16720
| 20>    C        2.31160        -1.23050        -0.52520
| 21>    C        3.64160        -0.95700        -0.80110
| 22>    C        4.21450         0.23020        -0.38500
| 23>    C        3.44550         1.14460         0.31490
| 24>    C        2.11940         0.87000         0.58780
| 25>    H        1.52770         1.59410         1.12980
| 26>    H        3.88060         2.07530         0.64930
| 27>    H        5.25110         0.44160        -0.60220
| 28>    H        4.23170        -1.68060        -1.34520
| 29>    H        1.89880        -2.16860        -0.86130
| 30>    C       -0.71560         0.69530         0.26310
| 31>    C       -0.56590         1.30470        -0.98080
| 32>    C       -1.27420         2.44510        -1.30720
| 33>    C       -2.15450         3.00110        -0.39360
| 34>    C       -2.31170         2.40660         0.84440
| 35>    C       -1.59790         1.26460         1.17060
| 36>    H       -1.73830         0.82830         2.14730
| 37>    H       -2.99420         2.83270         1.56580
| 38>    H       -2.71120         3.89160        -0.64580
| 39>    H       -1.14080         2.90100        -2.27770
| 40>    H        0.12210         0.88070        -1.69860
| 41>    C        0.08590        -0.96350         2.02940
| 42>    H       -0.89720        -1.27820         2.36990
| 43>    H        0.77450        -1.79450         2.17290
| 44>    H        0.42630        -0.13390         2.64470
| 45> *
| 46>
| 47>                          ****END OF INPUT****
 Total Charge           Charge          ....    0
 Multiplicity           Mult            ....    1
 Number of Electrons    NEL             ....  130
Dispersion correction           -0.020844216
FINAL SINGLE POINT ENERGY      -698.490835000392
Dispersion correction            ... done
Dispersion correction           -0.020535481
FINAL SINGLE POINT ENERGY      -698.495687240783
Dispersion correction            ... done
Dispersion correction           -0.020584859
FINAL SINGLE POINT ENERGY      -698.495912824988
Dispersion correction            ... done
FINAL SINGLE POINT ENERGY      -698.495997756230
FINAL SINGLE POINT ENERGY      -698.496021949207
FINAL SINGLE POINT ENERGY      -698.496029175142
FINAL SINGLE POINT ENERGY      -698.496034017979
FINAL SINGLE POINT ENERGY      -698.496039768824
FINAL SINGLE POINT ENERGY      -698.496047915675
Dispersion correction            ... done
Dispersion correction           -0.020600156
FINAL SINGLE POINT ENERGY      -698.496053021229
Dispersion correction            ... done
Dispersion correction           -0.020602244
FINAL SINGLE POINT ENERGY      -698.496058306879
Dispersion correction            ... done
                    ***********************HURRAY********************

CARTESIAN COORDINATES (ANGSTROEM)
---------------------------------
  C     -2.906752   -1.326550   -1.172246
  H     -2.652351   -1.770037   -2.149804
  H     -3.980073   -1.501362   -0.996729
  H     -2.752421   -0.240684   -1.246501
  C     -2.063212   -1.952964   -0.058834
  C     -2.353796   -3.451352    0.052338
  H     -2.034944   -3.983125   -0.860256
  H     -1.822362   -3.903486    0.904650
  H     -3.429931   -3.642361    0.188080
  H     -2.379971   -1.486684    0.890415
  C     -0.549288   -1.705584   -0.250999
  H     -0.000744   -2.617686    0.037932
  H     -0.346094   -1.559505   -1.325878
  C      0.070004   -0.528653    0.548471
  C      1.548267   -0.308939    0.178667
  C      2.295549   -1.213023   -0.580927
  C      3.646502   -0.981747   -0.852460
  C      4.278356    0.157324   -0.366507
  C      3.546180    1.068306    0.396266
  C      2.201836    0.835256    0.661218
  H      1.636259    1.567513    1.244659
  H      4.025351    1.971072    0.783910
  H      5.334207    0.339531   -0.582097
  H      4.205398   -1.704444   -1.452964
  H      1.832904   -2.117691   -0.977883
  C     -0.713951    0.752585    0.234205
  C     -0.553099    1.364965   -1.017738
  C     -1.292886    2.487169   -1.372041
  C     -2.214932    3.031280   -0.476085
  C     -2.378782    2.441676    0.772503
  C     -1.632656    1.314174    1.123573
  H     -1.782903    0.872627    2.110629
  H     -3.092718    2.859223    1.487266
  H     -2.797420    3.914031   -0.751294
  H     -1.149140    2.942445   -2.355368
  H      0.170038    0.952259   -1.727127
  C      0.042171   -0.885003    2.047169
  H     -0.966873   -1.152286    2.394159
  H      0.697156   -1.749856    2.229693
  H      0.406021   -0.053815    2.669035

 Multiplicity           Mult            ....    1
 Number of Electrons    NEL             ....  130
 Basis Dimension        Dim             ....  362

ORBITAL ENERGIES
----------------

  NO   OCC          E(Eh)            E(eV)
   0   2.0000     -10.311629      -280.5937
   1   2.0000     -10.297980      -280.2223
   2   2.0000     -10.297785      -280.2170
   3   2.0000     -10.292742      -280.0798
   4   2.0000     -10.292114      -280.0627
   5   2.0000     -10.290987      -280.0320
   6   2.0000     -10.290867      -280.0287
   7   2.0000     -10.290423      -280.0166
   8   2.0000     -10.290334      -280.0142
   9   2.0000     -10.289018      -279.9784
  10   2.0000     -10.288890      -279.9749
  11   2.0000     -10.288595      -279.9669
  12   2.0000     -10.287462      -279.9361
  13   2.0000     -10.287323      -279.9323
  14   2.0000     -10.284251      -279.8487
  15   2.0000     -10.283181      -279.8196
  16   2.0000     -10.275710      -279.6163
  17   2.0000     -10.269141      -279.4375
  18   2.0000      -0.984768       -26.7969
  19   2.0000      -0.963285       -26.2123
  20   2.0000      -0.932702       -25.3801
  21   2.0000      -0.896716       -24.4009
  22   2.0000      -0.854541       -23.2532
  23   2.0000      -0.852714       -23.2035
  24   2.0000      -0.847383       -23.0585
  25   2.0000      -0.828811       -22.5531
  26   2.0000      -0.788877       -21.4664
  27   2.0000      -0.782315       -21.2879
  28   2.0000      -0.737175       -20.0595
  29   2.0000      -0.709447       -19.3050
  30   2.0000      -0.703399       -19.1405
  31   2.0000      -0.696157       -18.9434
  32   2.0000      -0.668553       -18.1922
  33   2.0000      -0.650230       -17.6937
  34   2.0000      -0.622445       -16.9376
  35   2.0000      -0.608923       -16.5696
  36   2.0000      -0.572372       -15.5750
  37   2.0000      -0.562024       -15.2934
  38   2.0000      -0.555200       -15.1078
  39   2.0000      -0.545949       -14.8560
  40   2.0000      -0.542024       -14.7492
  41   2.0000      -0.539084       -14.6692
  42   2.0000      -0.524138       -14.2625
  43   2.0000      -0.518000       -14.0955
  44   2.0000      -0.517135       -14.0719
  45   2.0000      -0.513139       -13.9632
  46   2.0000      -0.511553       -13.9201
  47   2.0000      -0.484106       -13.1732
  48   2.0000      -0.475932       -12.9508
  49   2.0000      -0.471231       -12.8228
  50   2.0000      -0.466904       -12.7051
  51   2.0000      -0.462158       -12.5760
  52   2.0000      -0.457640       -12.4530
  53   2.0000      -0.445832       -12.1317
  54   2.0000      -0.439751       -11.9662
  55   2.0000      -0.433812       -11.8046
  56   2.0000      -0.424609       -11.5542
  57   2.0000      -0.419960       -11.4277
  58   2.0000      -0.410615       -11.1734
  59   2.0000      -0.404076       -10.9955
  60   2.0000      -0.396790       -10.7972
  61   2.0000      -0.342212        -9.3121
  62   2.0000      -0.338363        -9.2073
  63   2.0000      -0.336874        -9.1668
  64   2.0000      -0.318214        -8.6591
  65   0.0000       0.062643         1.7046
  66   0.0000       0.065669         1.7869
  67   0.0000       0.071624         1.9490
  68   0.0000       0.079643         2.1672
  69   0.0000       0.136476         3.7137

MULLIKEN ATOMIC CHARGES
-----------------------
   0 C :   -0.007801
   1 H :    0.019100
   2 H :    0.026599
   3 H :    0.048867
   4 C :   -0.153099
   5 C :   -0.018372
   6 H :    0.027605
   7 H :    0.029671
   8 H :    0.028623
   9 H :    0.018625
  10 C :    0.074143
  11 H :    0.023412
  12 H :    0.019531
  13 C :   -0.252032
  14 C :    0.015984
  15 C :   -0.052418
  16 C :   -0.010818
  17 C :   -0.014325
  18 C :   -0.014851
  19 C :   -0.030969
  20 H :    0.016454
  21 H :    0.016731
  22 H :    0.018601
  23 H :    0.014216
  24 H :    0.005014
  25 C :    0.034477
  26 C :   -0.036971
  27 C :   -0.016106
  28 C :   -0.014885
  29 C :   -0.011414
  30 C :   -0.057827
  31 H :    0.003471
  32 H :    0.016709
  33 H :    0.019379
  34 H :    0.018686
  35 H :    0.021215
  36 C :    0.074437
  37 H :    0.028474
  38 H :    0.036518
  39 H :    0.035348
Sum of atomic charges:   -0.0000000

LOEWDIN ATOMIC CHARGES
----------------------
   0 C :   -0.058555
   1 H :    0.020626
   2 H :    0.024528
   3 H :    0.030137
   4 C :   -0.044407
   5 C :   -0.059542
   6 H :    0.023489
   7 H :    0.023007
   8 H :    0.024674
   9 H :    0.019344
  10 C :   -0.017051
  11 H :    0.022110
  12 H :    0.023239
  13 C :   -0.035286
  14 C :   -0.010871
  15 C :   -0.039777
  16 C :   -0.030601
  17 C :   -0.038031
  18 C :   -0.029436
  19 C :   -0.023895
  20 H :    0.031653
  21 H :    0.032016
  22 H :    0.031304
  23 H :    0.030817
  24 H :    0.029117
  25 C :   -0.013626
  26 C :   -0.024312
  27 C :   -0.030380
  28 C :   -0.037647
  29 C :   -0.030615
  30 C :   -0.039202
  31 H :    0.028797
  32 H :    0.031950
  33 H :    0.031810
  34 H :    0.032766
  35 H :    0.033414
  36 C :   -0.042055
  37 H :    0.021200
  38 H :    0.031763
  39 H :    0.027527

  Mayer bond orders larger than 0.100000
B(  0-C ,  1-H ) :   0.9673 B(  0-C ,  2-H ) :   0.9706 B(  0-C ,  3-H ) :   0.9683
B(  0-C ,  4-C ) :   1.0634 B(  4-C ,  5-C ) :   1.0633 B(  4-C ,  9-H ) :   0.9350
B(  4-C , 10-C ) :   0.9971 B(  5-C ,  6-H ) :   0.9714 B(  5-C ,  7-H ) :   0.9703
B(  5-C ,  8-H ) :   0.9726 B( 10-C , 11-H ) :   0.9343 B( 10-C , 12-H ) :   0.9276
B( 10-C , 13-C ) :   1.0643 B( 13-C , 14-C ) :   0.9195 B( 13-C , 25-C ) :   0.9130
B( 13-C , 36-C ) :   1.0612 B( 14-C , 15-C ) :   1.4461 B( 14-C , 19-C ) :   1.3892
B( 15-C , 16-C ) :   1.3697 B( 15-C , 24-H ) :   0.9798 B( 16-C , 17-C ) :   1.4136
B( 16-C , 23-H ) :   0.9842 B( 17-C , 18-C ) :   1.3733 B( 17-C , 22-H ) :   0.9896
B( 18-C , 19-C ) :   1.4201 B( 18-C , 21-H ) :   0.9878 B( 19-C , 20-H ) :   0.9892
B( 25-C , 26-C ) :   1.3915 B( 25-C , 30-C ) :   1.4382 B( 26-C , 27-C ) :   1.4171
B( 26-C , 35-H ) :   0.9886 B( 27-C , 28-C ) :   1.3727 B( 27-C , 34-H ) :   0.9882
B( 28-C , 29-C ) :   1.4109 B( 28-C , 33-H ) :   0.9894 B( 29-C , 30-C ) :   1.3763
B( 29-C , 32-H ) :   0.9852 B( 30-C , 31-H ) :   0.9802 B( 36-C , 37-H ) :   0.9521
B( 36-C , 38-H ) :   0.9625 B( 36-C , 39-H ) :   0.9573

Dispersion correction           -0.020601877
FINAL SINGLE POINT ENERGY      -698.496058563836

DIPOLE MOMENT
-------------
                                X             Y             Z
Electronic contribution:     10.19337      11.37974      -0.51836
Nuclear contribution   :    -10.26656     -11.40836       0.57657
                        -----------------------------------------
Total Dipole Moment    :     -0.07320      -0.02863       0.05821
                        -----------------------------------------
Magnitude (a.u.)       :      0.09781
Magnitude (Debye)      :      0.24861

Rotational constants in cm-1:     0.018022     0.011656     0.008548
Rotational constants in MHz :   540.295488   349.432242   256.260284

                             ****ORCA TERMINATED NORMALLY****
TOTAL RUN TIME: 0 days 2 hours 2 minutes 41 seconds 876 msec
