                         Program Version 4.2.0 -  RELEASE  -
|  1> # ORCA input file
|  2> # -44.85230415
|  3> ! wB97X-D3 def2-SVP Opt
|  4> * xyz 0 1
|  5>    C       -3.42500        -1.62020        -0.11640
|  6>    C       -2.97220        -1.05690         1.06300
|  7>    C       -1.86010        -0.23160         1.06440
|  8>    C       -1.18620         0.04340        -0.11980
|  9>    C       -1.64840        -0.52800        -1.29970
| 10>    C       -2.75850        -1.35160        -1.29960
| 11>    H       -3.10340        -1.78580        -2.22650
| 12>    H       -1.13270        -0.30870        -2.22170
| 13>    C        0.05600         0.91740        -0.17870
| 14>    C        1.29170         0.05760        -0.00370
| 15>    N        2.27860         0.32060        -0.85170
| 16>    C        3.41030        -0.35380        -0.74930
| 17>    C        3.62320        -1.33090         0.20740
| 18>    C        2.59270        -1.61030         1.09410
| 19>    C        1.40630        -0.90700         0.99260
| 20>    H        0.58230        -1.10780         1.65830
| 21>    H        2.71360        -2.36910         1.85360
| 22>    H        4.56200        -1.85930         0.25640
| 23>    H        4.17310        -0.09230        -1.47130
| 24>    O        0.09680         1.57810        -1.42670
| 25>    H        1.01710         1.52040        -1.73200
| 26>    C        0.08140         2.01950         0.93090
| 27>    N       -1.02970         2.93690         0.86060
| 28>    H       -1.05680         3.34330        -0.07010
| 29>    H       -1.90430         2.43770         0.99400
| 30>    H        0.11610         1.56460         1.92270
| 31>    H        1.00060         2.59600         0.78980
| 32>    H       -1.53210         0.19550         2.00050
| 33>    H       -3.48650        -1.25780         1.99180
| 34>    H       -4.29290        -2.26300        -0.11300
| 35> *
| 36>
| 37>                          ****END OF INPUT****
 Total Charge           Charge          ....    0
 Multiplicity           Mult            ....    1
 Number of Electrons    NEL             ....  114
Dispersion correction           -0.013716196
FINAL SINGLE POINT ENERGY      -687.853016200190
Dispersion correction            ... done
Dispersion correction           -0.013627129
FINAL SINGLE POINT ENERGY      -687.856152080978
Dispersion correction            ... done
Dispersion correction           -0.013607259
FINAL SINGLE POINT ENERGY      -687.856342395978
Dispersion correction            ... done
FINAL SINGLE POINT ENERGY      -687.856396482940
Dispersion correction            ... done
Dispersion correction           -0.013601695
FINAL SINGLE POINT ENERGY      -687.856404454442
Dispersion correction            ... done
Dispersion correction           -0.013603904
FINAL SINGLE POINT ENERGY      -687.856406224119
Dispersion correction            ... done
                    ***********************HURRAY********************

CARTESIAN COORDINATES (ANGSTROEM)
---------------------------------
  C     -3.478714   -1.627606   -0.112810
  C     -2.982850   -1.114674    1.082691
  C     -1.860214   -0.286784    1.078087
  C     -1.212812    0.037463   -0.119539
  C     -1.727452   -0.473960   -1.314725
  C     -2.847043   -1.301494   -1.312184
  H     -3.232868   -1.692330   -2.257235
  H     -1.237006   -0.198285   -2.249224
  C      0.047700    0.904337   -0.165945
  C      1.304882    0.041311    0.013399
  N      2.291122    0.325508   -0.833689
  C      3.448639   -0.327290   -0.738544
  C      3.683058   -1.302331    0.223536
  C      2.654580   -1.603659    1.115991
  C      1.446137   -0.926193    1.012782
  H      0.616767   -1.155709    1.683704
  H      2.792526   -2.368173    1.884917
  H      4.645764   -1.814873    0.270372
  H      4.222666   -0.057311   -1.464639
  O      0.117398    1.536683   -1.416516
  H      1.049678    1.447635   -1.689243
  C      0.051714    2.016074    0.919094
  N     -1.001094    2.991089    0.769028
  H     -0.991990    3.314350   -0.198051
  H     -1.909095    2.549606    0.905455
  H      0.024084    1.579671    1.931094
  H      1.028152    2.522670    0.834338
  H     -1.496162    0.109269    2.029716
  H     -3.474425   -1.354024    2.028998
  H     -4.360141   -2.274070   -0.110958

 Multiplicity           Mult            ....    1
 Number of Electrons    NEL             ....  114
 Basis Dimension        Dim             ....  294

ORBITAL ENERGIES
----------------

  NO   OCC          E(Eh)            E(eV)
   0   2.0000     -19.225699      -523.1579
   1   2.0000     -14.447021      -393.1234
   2   2.0000     -14.395560      -391.7231
   3   2.0000     -10.346246      -281.5357
   4   2.0000     -10.344732      -281.4945
   5   2.0000     -10.343024      -281.4480
   6   2.0000     -10.326328      -280.9937
   7   2.0000     -10.313324      -280.6398
   8   2.0000     -10.312980      -280.6305
   9   2.0000     -10.305283      -280.4210
  10   2.0000     -10.299179      -280.2549
  11   2.0000     -10.296629      -280.1855
  12   2.0000     -10.295744      -280.1614
  13   2.0000     -10.293506      -280.1005
  14   2.0000     -10.292838      -280.0824
  15   2.0000     -10.287464      -279.9361
  16   2.0000      -1.134383       -30.8681
  17   2.0000      -1.070771       -29.1372
  18   2.0000      -0.983034       -26.7497
  19   2.0000      -0.968333       -26.3497
  20   2.0000      -0.928503       -25.2658
  21   2.0000      -0.904531       -24.6135
  22   2.0000      -0.866577       -23.5808
  23   2.0000      -0.854814       -23.2607
  24   2.0000      -0.809743       -22.0342
  25   2.0000      -0.754975       -20.5439
  26   2.0000      -0.743589       -20.2341
  27   2.0000      -0.727144       -19.7866
  28   2.0000      -0.707419       -19.2499
  29   2.0000      -0.674206       -18.3461
  30   2.0000      -0.655014       -17.8238
  31   2.0000      -0.627206       -17.0671
  32   2.0000      -0.605601       -16.4792
  33   2.0000      -0.594090       -16.1660
  34   2.0000      -0.580494       -15.7960
  35   2.0000      -0.570652       -15.5282
  36   2.0000      -0.557100       -15.1595
  37   2.0000      -0.553857       -15.0712
  38   2.0000      -0.537622       -14.6294
  39   2.0000      -0.525284       -14.2937
  40   2.0000      -0.520571       -14.1654
  41   2.0000      -0.517664       -14.0864
  42   2.0000      -0.509607       -13.8671
  43   2.0000      -0.500165       -13.6102
  44   2.0000      -0.483742       -13.1633
  45   2.0000      -0.471406       -12.8276
  46   2.0000      -0.456381       -12.4188
  47   2.0000      -0.442328       -12.0363
  48   2.0000      -0.431031       -11.7290
  49   2.0000      -0.421372       -11.4661
  50   2.0000      -0.395011       -10.7488
  51   2.0000      -0.378479       -10.2989
  52   2.0000      -0.377039       -10.2598
  53   2.0000      -0.364218        -9.9109
  54   2.0000      -0.341933        -9.3045
  55   2.0000      -0.332054        -9.0357
  56   2.0000      -0.314340        -8.5536
  57   0.0000       0.033310         0.9064
  58   0.0000       0.045226         1.2307
  59   0.0000       0.067520         1.8373
  60   0.0000       0.069493         1.8910
  61   0.0000       0.137679         3.7464

MULLIKEN ATOMIC CHARGES
-----------------------
   0 C :   -0.014759
   1 C :   -0.014656
   2 C :   -0.056885
   3 C :   -0.024540
   4 C :   -0.015966
   5 C :   -0.009150
   6 H :    0.019077
   7 H :    0.019774
   8 C :    0.019880
   9 C :    0.011406
  10 N :   -0.186016
  11 C :    0.054546
  12 C :   -0.057102
  13 C :    0.036201
  14 C :   -0.023004
  15 H :    0.025565
  16 H :    0.036798
  17 H :    0.037808
  18 H :    0.042202
  19 O :   -0.284602
  20 H :    0.172516
  21 C :    0.151214
  22 N :   -0.231256
  23 H :    0.111157
  24 H :    0.100642
  25 H :    0.013863
  26 H :    0.020289
  27 H :    0.007399
  28 H :    0.016930
  29 H :    0.020672
Sum of atomic charges:   -0.0000000

LOEWDIN ATOMIC CHARGES
----------------------
   0 C :   -0.034222
   1 C :   -0.031911
   2 C :   -0.046487
   3 C :   -0.031503
   4 C :   -0.014905
   5 C :   -0.027212
   6 H :    0.032109
   7 H :    0.033054
   8 C :    0.015193
   9 C :    0.026664
  10 N :   -0.088578
  11 C :    0.030940
  12 C :   -0.056310
  13 C :    0.011740
  14 C :   -0.040303
  15 H :    0.038945
  16 H :    0.039882
  17 H :    0.039540
  18 H :    0.030122
  19 O :   -0.117173
  20 H :    0.051837
  21 C :    0.010751
  22 N :   -0.114616
  23 H :    0.058368
  24 H :    0.054291
  25 H :    0.015744
  26 H :    0.024681
  27 H :    0.025530
  28 H :    0.031940
  29 H :    0.031891

  Mayer bond orders larger than 0.100000
B(  0-C ,  1-C ) :   1.4024 B(  0-C ,  5-C ) :   1.3869 B(  0-C , 29-H ) :   0.9899
B(  1-C ,  2-C ) :   1.3988 B(  1-C , 28-H ) :   0.9878 B(  2-C ,  3-C ) :   1.3901
B(  2-C , 27-H ) :   0.9861 B(  3-C ,  4-C ) :   1.4246 B(  3-C ,  8-C ) :   0.8926
B(  4-C ,  5-C ) :   1.3856 B(  4-C ,  7-H ) :   0.9876 B(  5-C ,  6-H ) :   0.9903
B(  8-C ,  9-C ) :   0.9149 B(  8-C , 19-O ) :   1.1395 B(  8-C , 21-C ) :   0.9877
B(  9-C , 10-N ) :   1.5164 B(  9-C , 14-C ) :   1.3769 B( 10-N , 11-C ) :   1.4806
B( 10-N , 20-H ) :   0.1140 B( 11-C , 12-C ) :   1.4129 B( 11-C , 18-H ) :   0.9791
B( 12-C , 13-C ) :   1.4009 B( 12-C , 17-H ) :   0.9773 B( 13-C , 14-C ) :   1.4414
B( 13-C , 16-H ) :   0.9792 B( 14-C , 15-H ) :   0.9730 B( 19-O , 20-H ) :   0.9194
B( 21-C , 22-N ) :   1.1440 B( 21-C , 25-H ) :   0.9382 B( 21-C , 26-H ) :   0.9364
B( 22-N , 23-H ) :   0.9638 B( 22-N , 24-H ) :   0.9738

Dispersion correction           -0.013603671
FINAL SINGLE POINT ENERGY      -687.856407207829

DIPOLE MOMENT
-------------
                                X             Y             Z
Electronic contribution:      2.84774      -1.86688      -2.94837
Nuclear contribution   :     -2.16488       0.61112       3.33945
                        -----------------------------------------
Total Dipole Moment    :      0.68286      -1.25576       0.39109
                        -----------------------------------------
Magnitude (a.u.)       :      1.48195
Magnitude (Debye)      :      3.76682

Rotational constants in cm-1:     0.027816     0.013285     0.011427
Rotational constants in MHz :   833.903142   398.268796   342.582531

                             ****ORCA TERMINATED NORMALLY****
TOTAL RUN TIME: 0 days 0 hours 38 minutes 40 seconds 239 msec
