                         Program Version 4.2.0 -  RELEASE  -
|  1> # ORCA input file
|  2> # -44.79147846
|  3> ! wB97X-D3 def2-SVP Opt
|  4> * xyz 0 1
|  5>    C        2.24850         2.75090         0.38280
|  6>    H        2.97370         1.99580         0.67500
|  7>    H        2.40150         2.98850        -0.66600
|  8>    C        0.82830         2.24360         0.59770
|  9>    H        0.69910         1.93190         1.63540
| 10>    H        0.12480         3.05430         0.39330
| 11>    C        0.48880         1.05690        -0.32400
| 12>    N        0.60180         1.51330        -1.71020
| 13>    H       -0.01710         2.30320        -1.86000
| 14>    H        0.32010         0.77250        -2.34350
| 15>    C       -0.91270         0.53320        -0.06780
| 16>    C       -1.89240         1.13200         0.65530
| 17>    S       -3.37100         0.24320         0.62780
| 18>    C       -2.66310        -0.97310        -0.39020
| 19>    C       -1.36970        -0.67550        -0.66790
| 20>    H       -0.73740        -1.30250        -1.27350
| 21>    C       -3.46240        -2.14460        -0.83630
| 22>    H       -4.33010        -1.82260        -1.41200
| 23>    H       -2.85090        -2.79660        -1.45580
| 24>    H       -3.82380        -2.71190         0.02100
| 25>    H       -1.85830         2.04150         1.22000
| 26>    C        1.47560        -0.06850        -0.06780
| 27>    C        2.52880        -0.31920        -0.93590
| 28>    C        3.42500        -1.34100        -0.67420
| 29>    C        3.28150        -2.12140         0.45950
| 30>    C        2.23750        -1.87150         1.33440
| 31>    C        1.34130        -0.85180         1.07250
| 32>    H        0.52620        -0.66420         1.75720
| 33>    H        2.12040        -2.47380         2.22370
| 34>    H        3.98050        -2.91950         0.66300
| 35>    H        4.24040        -1.52650        -1.35850
| 36>    H        2.64450         0.29820        -1.81270
| 37>    H        2.41970         3.64560         0.97700
| 38> *
| 39>
| 40>                          ****END OF INPUT****
 Total Charge           Charge          ....    0
 Multiplicity           Mult            ....    1
 Number of Electrons    NEL             ....  124
Dispersion correction           -0.016045240
FINAL SINGLE POINT ENERGY      -995.953212832995
Dispersion correction            ... done
Dispersion correction           -0.015868646
FINAL SINGLE POINT ENERGY      -995.956970927570
Dispersion correction            ... done
Dispersion correction           -0.015863347
FINAL SINGLE POINT ENERGY      -995.957150490915
Dispersion correction            ... done
FINAL SINGLE POINT ENERGY      -995.957203580648
Dispersion correction            ... done
Dispersion correction           -0.015863725
FINAL SINGLE POINT ENERGY      -995.957213511011
Dispersion correction            ... done
Dispersion correction           -0.015863723
FINAL SINGLE POINT ENERGY      -995.957224325940
Dispersion correction            ... done
                    ***********************HURRAY********************

CARTESIAN COORDINATES (ANGSTROEM)
---------------------------------
  C      2.234287    2.794165    0.399895
  H      2.994877    2.067315    0.721426
  H      2.434464    3.045334   -0.651473
  C      0.825926    2.237207    0.565965
  H      0.661012    1.936128    1.613346
  H      0.089948    3.033488    0.353907
  C      0.494294    1.034403   -0.345878
  N      0.621126    1.481188   -1.736094
  H     -0.040499    2.238412   -1.899158
  H      0.349751    0.731437   -2.370786
  C     -0.921324    0.520200   -0.078309
  C     -1.876905    1.117194    0.696808
  S     -3.366001    0.251876    0.676220
  C     -2.729318   -0.951444   -0.391301
  C     -1.428128   -0.673666   -0.698289
  H     -0.822866   -1.321349   -1.337718
  C     -3.564067   -2.109950   -0.844659
  H     -4.450519   -1.778628   -1.407185
  H     -2.969928   -2.761357   -1.500239
  H     -3.915235   -2.714578    0.005523
  H     -1.795362    2.026118    1.290500
  C      1.498098   -0.095112   -0.079868
  C      2.574792   -0.331562   -0.937922
  C      3.499974   -1.338250   -0.658214
  C      3.366189   -2.118057    0.487102
  C      2.297604   -1.885263    1.353620
  C      1.372263   -0.885252    1.069663
  H      0.528623   -0.719713    1.745962
  H      2.180924   -2.491462    2.255742
  H      4.091116   -2.906535    0.705320
  H      4.334887   -1.508938   -1.343143
  H      2.686583    0.292837   -1.825954
  H      2.362513    3.704215    1.004492

 Multiplicity           Mult            ....    1
 Number of Electrons    NEL             ....  124
 Basis Dimension        Dim             ....  313

ORBITAL ENERGIES
----------------

  NO   OCC          E(Eh)            E(eV)
   0   2.0000     -88.958983     -2420.6970
   1   2.0000     -14.412781      -392.1917
   2   2.0000     -10.332818      -281.1703
   3   2.0000     -10.320240      -280.8280
   4   2.0000     -10.309303      -280.5304
   5   2.0000     -10.300986      -280.3041
   6   2.0000     -10.294549      -280.1289
   7   2.0000     -10.293475      -280.0997
   8   2.0000     -10.289013      -279.9783
   9   2.0000     -10.288300      -279.9589
  10   2.0000     -10.287775      -279.9446
  11   2.0000     -10.287740      -279.9436
  12   2.0000     -10.286694      -279.9152
  13   2.0000     -10.286416      -279.9076
  14   2.0000     -10.283456      -279.8271
  15   2.0000     -10.268793      -279.4281
  16   2.0000      -8.075230      -219.7382
  17   2.0000      -6.033624      -164.1832
  18   2.0000      -6.029605      -164.0739
  19   2.0000      -6.026007      -163.9760
  20   2.0000      -1.020717       -27.7751
  21   2.0000      -0.991087       -26.9689
  22   2.0000      -0.959365       -26.1057
  23   2.0000      -0.889308       -24.1993
  24   2.0000      -0.870338       -23.6831
  25   2.0000      -0.853706       -23.2305
  26   2.0000      -0.848068       -23.0771
  27   2.0000      -0.839397       -22.8412
  28   2.0000      -0.793209       -21.5843
  29   2.0000      -0.755957       -20.5706
  30   2.0000      -0.713153       -19.4059
  31   2.0000      -0.703053       -19.1311
  32   2.0000      -0.675835       -18.3904
  33   2.0000      -0.644919       -17.5491
  34   2.0000      -0.635786       -17.3006
  35   2.0000      -0.616803       -16.7841
  36   2.0000      -0.603486       -16.4217
  37   2.0000      -0.578653       -15.7460
  38   2.0000      -0.563547       -15.3349
  39   2.0000      -0.539340       -14.6762
  40   2.0000      -0.535879       -14.5820
  41   2.0000      -0.532001       -14.4765
  42   2.0000      -0.526471       -14.3260
  43   2.0000      -0.514692       -14.0055
  44   2.0000      -0.508745       -13.8437
  45   2.0000      -0.501384       -13.6434
  46   2.0000      -0.496507       -13.5106
  47   2.0000      -0.483140       -13.1469
  48   2.0000      -0.468218       -12.7409
  49   2.0000      -0.466506       -12.6943
  50   2.0000      -0.461609       -12.5610
  51   2.0000      -0.449132       -12.2215
  52   2.0000      -0.438493       -11.9320
  53   2.0000      -0.432428       -11.7670
  54   2.0000      -0.428392       -11.6571
  55   2.0000      -0.423142       -11.5143
  56   2.0000      -0.409739       -11.1496
  57   2.0000      -0.356033        -9.6881
  58   2.0000      -0.335363        -9.1257
  59   2.0000      -0.327857        -8.9215
  60   2.0000      -0.321999        -8.7620
  61   2.0000      -0.310709        -8.4548
  62   0.0000       0.060483         1.6458
  63   0.0000       0.070568         1.9202
  64   0.0000       0.079476         2.1626
  65   0.0000       0.128388         3.4936
  66   0.0000       0.137788         3.7494

MULLIKEN ATOMIC CHARGES
-----------------------
   0 C :   -0.002275
   1 H :    0.043852
   2 H :    0.034694
   3 C :   -0.015019
   4 H :    0.029179
   5 H :    0.023903
   6 C :   -0.077306
   7 N :   -0.170231
   8 H :    0.103355
   9 H :    0.103628
  10 C :    0.008556
  11 C :   -0.161157
  12 S :    0.081753
  13 C :   -0.247594
  14 C :    0.000961
  15 H :    0.012184
  16 C :    0.054515
  17 H :    0.056510
  18 H :    0.041820
  19 H :    0.057018
  20 H :    0.049475
  21 C :   -0.028737
  22 C :   -0.039737
  23 C :   -0.009151
  24 C :   -0.014138
  25 C :   -0.018494
  26 C :   -0.028581
  27 H :    0.017340
  28 H :    0.016693
  29 H :    0.017756
  30 H :    0.015881
  31 H :    0.015738
  32 H :    0.027610
Sum of atomic charges:    0.0000000

LOEWDIN ATOMIC CHARGES
----------------------
   0 C :   -0.063857
   1 H :    0.030041
   2 H :    0.027058
   3 C :   -0.033124
   4 H :    0.026138
   5 H :    0.020647
   6 C :    0.006828
   7 N :   -0.088649
   8 H :    0.059239
   9 H :    0.056185
  10 C :   -0.073388
  11 C :   -0.212534
  12 S :    0.400477
  13 C :   -0.181327
  14 C :   -0.082508
  15 H :    0.029704
  16 C :   -0.067635
  17 H :    0.040022
  18 H :    0.040375
  19 H :    0.040564
  20 H :    0.026933
  21 C :   -0.024104
  22 C :   -0.032159
  23 C :   -0.032292
  24 C :   -0.037606
  25 C :   -0.031862
  26 C :   -0.026264
  27 H :    0.032861
  28 H :    0.031673
  29 H :    0.030793
  30 H :    0.031076
  31 H :    0.030517
  32 H :    0.026179

  Mayer bond orders larger than 0.100000
B(  0-C ,  1-H ) :   0.9665 B(  0-C ,  2-H ) :   0.9640 B(  0-C ,  3-C ) :   1.0911
B(  0-C , 32-H ) :   0.9676 B(  3-C ,  4-H ) :   0.9392 B(  3-C ,  5-H ) :   0.9330
B(  3-C ,  6-C ) :   1.0561 B(  6-C ,  7-N ) :   1.0886 B(  6-C , 10-C ) :   0.9353
B(  6-C , 21-C ) :   0.9147 B(  7-N ,  8-H ) :   0.9636 B(  7-N ,  9-H ) :   0.9547
B( 10-C , 11-C ) :   1.6413 B( 10-C , 14-C ) :   1.2276 B( 11-C , 12-S ) :   1.1274
B( 11-C , 20-H ) :   0.9552 B( 12-S , 13-C ) :   1.1546 B( 13-C , 14-C ) :   1.6166
B( 13-C , 16-C ) :   1.0458 B( 14-C , 15-H ) :   0.9917 B( 16-C , 17-H ) :   0.9598
B( 16-C , 18-H ) :   0.9653 B( 16-C , 19-H ) :   0.9596 B( 21-C , 22-C ) :   1.4424
B( 21-C , 26-C ) :   1.3974 B( 22-C , 23-C ) :   1.3662 B( 22-C , 31-H ) :   0.9782
B( 23-C , 24-C ) :   1.4042 B( 23-C , 30-H ) :   0.9876 B( 24-C , 25-C ) :   1.3838
B( 24-C , 29-H ) :   0.9893 B( 25-C , 26-C ) :   1.4062 B( 25-C , 28-H ) :   0.9869
B( 26-C , 27-H ) :   0.9899

Dispersion correction           -0.015863090
FINAL SINGLE POINT ENERGY      -995.957225298160

DIPOLE MOMENT
-------------
                                X             Y             Z
Electronic contribution:     -8.57913      -2.93754       2.38743
Nuclear contribution   :      8.18673       2.73290      -2.58599
                        -----------------------------------------
Total Dipole Moment    :     -0.39240      -0.20463      -0.19856
                        -----------------------------------------
Magnitude (a.u.)       :      0.48505
Magnitude (Debye)      :      1.23291

Rotational constants in cm-1:     0.024762     0.011028     0.009079
Rotational constants in MHz :   742.334272   330.617754   272.191626

                             ****ORCA TERMINATED NORMALLY****
TOTAL RUN TIME: 0 days 0 hours 46 minutes 36 seconds 242 msec
