                         Program Version 4.2.0 -  RELEASE  -
|  1> # ORCA input file
|  2> # -42.93174287
|  3> ! wB97X-D3 def2-SVP Opt
|  4> * xyz 0 1
|  5>    C        3.35210         0.93580         0.71940
|  6>    C        1.96940         0.96530         0.75650
|  7>    C        1.25260         0.02060         0.02470
|  8>    C        1.98620        -0.91080        -0.71310
|  9>    N        3.30330        -0.94080        -0.74650
| 10>    C        3.97170        -0.04070        -0.04570
| 11>    H        5.05000        -0.10940        -0.10410
| 12>    H        1.48750        -1.66040        -1.31290
| 13>    C       -0.21630         0.00890         0.01740
| 14>    C       -0.97310         1.16900        -0.15090
| 15>    C       -2.35010         1.18130        -0.17930
| 16>    C       -3.05910        -0.01150        -0.02130
| 17>    C       -2.33700        -1.19380         0.15530
| 18>    C       -0.96000        -1.16220         0.16690
| 19>    F       -0.31210        -2.32880         0.35880
| 20>    H       -2.84410        -2.13620         0.28840
| 21>    N       -4.42600        -0.01260         0.02350
| 22>    H       -4.89760        -0.89330        -0.08960
| 23>    H       -4.90730         0.79690        -0.32820
| 24>    H       -2.86690         2.11690        -0.32310
| 25>    F       -0.33630         2.34560        -0.32750
| 26>    H        1.45110         1.70310         1.35140
| 27>    H        3.93520         1.65270         1.27640
| 28> *
| 29>
| 30>                          ****END OF INPUT****
 Total Charge           Charge          ....    0
 Multiplicity           Mult            ....    1
 Number of Electrons    NEL             ....  106
Dispersion correction           -0.008342130
FINAL SINGLE POINT ENERGY      -732.432929500611
Dispersion correction            ... done
Dispersion correction           -0.008321890
FINAL SINGLE POINT ENERGY      -732.434986648584
Dispersion correction            ... done
Dispersion correction           -0.008326580
FINAL SINGLE POINT ENERGY      -732.435081911242
Dispersion correction            ... done
FINAL SINGLE POINT ENERGY      -732.435102121893
Dispersion correction            ... done
Dispersion correction           -0.008338117
FINAL SINGLE POINT ENERGY      -732.435106045453
Dispersion correction            ... done
Dispersion correction           -0.008340335
FINAL SINGLE POINT ENERGY      -732.435107039691
Dispersion correction            ... done
                    ***********************HURRAY********************

CARTESIAN COORDINATES (ANGSTROEM)
---------------------------------
  C      3.378677    0.914394    0.742970
  C      1.989184    0.949839    0.778539
  C      1.263482    0.029666    0.015903
  C      1.999182   -0.884347   -0.752394
  N      3.325682   -0.926931   -0.788531
  C      3.999135   -0.045277   -0.053973
  H      5.092804   -0.102669   -0.101987
  H      1.469650   -1.617916   -1.370636
  C     -0.219544    0.014784    0.010362
  C     -0.986650    1.169408   -0.179888
  C     -2.370676    1.186839   -0.195403
  C     -3.079703   -0.010669   -0.006096
  C     -2.351345   -1.194646    0.193050
  C     -0.967477   -1.153529    0.194797
  F     -0.315538   -2.300363    0.394351
  H     -2.846835   -2.153235    0.356047
  N     -4.453776   -0.017070    0.023750
  H     -4.923391   -0.903730   -0.092503
  H     -4.937840    0.774116   -0.376201
  H     -2.881399    2.138010   -0.354665
  F     -0.351253    2.328898   -0.367484
  H      1.466296    1.683521    1.396392
  H      3.974535    1.616506    1.330101

 Multiplicity           Mult            ....    1
 Number of Electrons    NEL             ....  106
 Basis Dimension        Dim             ....  250

ORBITAL ENERGIES
----------------

  NO   OCC          E(Eh)            E(eV)
   0   2.0000     -24.810709      -675.1337
   1   2.0000     -24.809318      -675.0959
   2   2.0000     -14.458309      -393.4306
   3   2.0000     -14.421153      -392.4195
   4   2.0000     -10.390994      -282.7533
   5   2.0000     -10.390679      -282.7448
   6   2.0000     -10.360808      -281.9319
   7   2.0000     -10.322090      -280.8783
   8   2.0000     -10.321612      -280.8654
   9   2.0000     -10.312008      -280.6040
  10   2.0000     -10.309719      -280.5417
  11   2.0000     -10.306807      -280.4625
  12   2.0000     -10.298332      -280.2319
  13   2.0000     -10.298318      -280.2315
  14   2.0000     -10.297964      -280.2218
  15   2.0000      -1.336477       -36.3674
  16   2.0000      -1.335351       -36.3367
  17   2.0000      -1.053794       -28.6752
  18   2.0000      -1.052075       -28.6284
  19   2.0000      -0.978719       -26.6323
  20   2.0000      -0.922653       -25.1067
  21   2.0000      -0.886437       -24.1212
  22   2.0000      -0.868843       -23.6424
  23   2.0000      -0.842647       -22.9296
  24   2.0000      -0.755092       -20.5471
  25   2.0000      -0.750399       -20.4194
  26   2.0000      -0.730063       -19.8660
  27   2.0000      -0.716886       -19.5074
  28   2.0000      -0.676243       -18.4015
  29   2.0000      -0.663529       -18.0556
  30   2.0000      -0.633770       -17.2458
  31   2.0000      -0.619274       -16.8513
  32   2.0000      -0.604036       -16.4367
  33   2.0000      -0.597060       -16.2468
  34   2.0000      -0.588571       -16.0158
  35   2.0000      -0.577210       -15.7067
  36   2.0000      -0.575321       -15.6553
  37   2.0000      -0.574822       -15.6417
  38   2.0000      -0.556113       -15.1326
  39   2.0000      -0.527017       -14.3409
  40   2.0000      -0.506967       -13.7953
  41   2.0000      -0.500082       -13.6079
  42   2.0000      -0.499500       -13.5921
  43   2.0000      -0.492968       -13.4143
  44   2.0000      -0.488051       -13.2806
  45   2.0000      -0.476988       -12.9795
  46   2.0000      -0.454716       -12.3735
  47   2.0000      -0.420111       -11.4318
  48   2.0000      -0.375657       -10.2222
  49   2.0000      -0.352877        -9.6023
  50   2.0000      -0.343729        -9.3533
  51   2.0000      -0.341699        -9.2981
  52   2.0000      -0.296689        -8.0733
  53   0.0000       0.040627         1.1055
  54   0.0000       0.058266         1.5855
  55   0.0000       0.067592         1.8393
  56   0.0000       0.092289         2.5113
  57   0.0000       0.131977         3.5913

MULLIKEN ATOMIC CHARGES
-----------------------
   0 C :   -0.052270
   1 C :    0.038789
   2 C :   -0.041455
   3 C :    0.042780
   4 N :   -0.135866
   5 C :    0.027436
   6 H :    0.035261
   7 H :    0.030090
   8 C :   -0.132209
   9 C :    0.261013
  10 C :   -0.124737
  11 C :    0.090848
  12 C :   -0.123978
  13 C :    0.261509
  14 F :   -0.189733
  15 H :    0.007466
  16 N :   -0.128778
  17 H :    0.132252
  18 H :    0.132301
  19 H :    0.006809
  20 F :   -0.193155
  21 H :    0.028125
  22 H :    0.027501
Sum of atomic charges:   -0.0000000

LOEWDIN ATOMIC CHARGES
----------------------
   0 C :   -0.055330
   1 C :    0.011284
   2 C :   -0.046762
   3 C :    0.029189
   4 N :   -0.086058
   5 C :    0.017629
   6 H :    0.025400
   7 H :    0.024861
   8 C :   -0.125362
   9 C :    0.111984
  10 C :   -0.119913
  11 C :    0.049757
  12 C :   -0.119380
  13 C :    0.112287
  14 F :   -0.053189
  15 H :    0.039524
  16 N :   -0.028974
  17 H :    0.078902
  18 H :    0.078733
  19 H :    0.039243
  20 F :   -0.056139
  21 H :    0.036204
  22 H :    0.036109

  Mayer bond orders larger than 0.100000
B(  0-C ,  1-C ) :   1.4259 B(  0-C ,  5-C ) :   1.3935 B(  0-C , 22-H ) :   0.9749
B(  1-C ,  2-C ) :   1.4280 B(  1-C , 21-H ) :   0.9846 B(  2-C ,  3-C ) :   1.3778
B(  2-C ,  8-C ) :   0.9372 B(  3-C ,  4-N ) :   1.5469 B(  3-C ,  7-H ) :   0.9860
B(  4-N ,  5-C ) :   1.5208 B(  5-C ,  6-H ) :   0.9798 B(  8-C ,  9-C ) :   1.3472
B(  8-C , 13-C ) :   1.3468 B(  9-C , 10-C ) :   1.4027 B(  9-C , 20-F ) :   1.0860
B( 10-C , 11-C ) :   1.2748 B( 10-C , 19-H ) :   0.9952 B( 11-C , 12-C ) :   1.2753
B( 11-C , 16-N ) :   1.2347 B( 12-C , 13-C ) :   1.4010 B( 12-C , 15-H ) :   0.9952
B( 13-C , 14-F ) :   1.0901 B( 16-N , 17-H ) :   0.9526 B( 16-N , 18-H ) :   0.9527

Dispersion correction           -0.008341168
FINAL SINGLE POINT ENERGY      -732.435107637075

DIPOLE MOMENT
-------------
                                X             Y             Z
Electronic contribution:      0.93250      -0.80522      -0.54485
Nuclear contribution   :     -2.74729       1.30071       0.72053
                        -----------------------------------------
Total Dipole Moment    :     -1.81479       0.49549       0.17568
                        -----------------------------------------
Magnitude (a.u.)       :      1.88940
Magnitude (Debye)      :      4.80248

Rotational constants in cm-1:     0.045071     0.012898     0.010566
Rotational constants in MHz :  1351.182387   386.685042   316.751488

                             ****ORCA TERMINATED NORMALLY****
TOTAL RUN TIME: 0 days 0 hours 22 minutes 34 seconds 224 msec
