                         Program Version 4.2.0 -  RELEASE  -
|  1> # ORCA input file
|  2> # -49.36646482
|  3> ! wB97X-D3 def2-SVP Opt
|  4> * xyz 0 1
|  5>    C       -5.49060        -0.70910         0.92850
|  6>    C       -4.88010        -1.28650        -0.33950
|  7>    H       -5.18490        -0.69630        -1.21110
|  8>    H       -5.18090        -2.32640        -0.48410
|  9>    O       -3.44870        -1.33730        -0.28110
| 10>    C       -2.83920        -0.17490        -0.19970
| 11>    C       -1.62630         0.45680        -0.12360
| 12>    C       -2.81020         1.25270        -0.12830
| 13>    O       -3.39510         2.30310        -0.08950
| 14>    C       -0.20570         0.29850        -0.07540
| 15>    C        0.37410        -0.97160        -0.11390
| 16>    C        1.74400        -1.10990        -0.06780
| 17>    C        2.58880        -0.00220         0.01750
| 18>    C        2.00040         1.25850         0.05550
| 19>    C        0.62850         1.41240         0.01020
| 20>    H        0.18840         2.39800         0.04050
| 21>    H        2.60980         2.14480         0.12120
| 22>    C        4.09300        -0.21380         0.06480
| 23>    C        4.43910        -1.06230         1.29700
| 24>    H        3.96440        -2.03860         1.25400
| 25>    H        4.10690        -0.56120         2.20390
| 26>    H        5.51520        -1.20970         1.35850
| 27>    C        4.87320         1.10040         0.15630
| 28>    H        4.61600         1.64700         1.06050
| 29>    H        4.68270         1.73050        -0.70930
| 30>    H        5.93960         0.88610         0.18640
| 31>    C        4.53470        -0.94440        -1.21150
| 32>    H        5.61300        -1.08850        -1.20500
| 33>    H        4.06240        -1.91900        -1.29600
| 34>    H        4.27000        -0.35970        -2.09010
| 35>    H        2.16190        -2.10500        -0.09950
| 36>    H       -0.26310        -1.84130        -0.18030
| 37>    H       -6.57350        -0.76530         0.86730
| 38>    H       -5.15620        -1.27050         1.79830
| 39>    H       -5.20230         0.33280         1.04880
| 40> *
| 41>
| 42>                          ****END OF INPUT****
 Total Charge           Charge          ....    0
 Multiplicity           Mult            ....    1
 Number of Electrons    NEL             ....  124
Dispersion correction           -0.013909686
FINAL SINGLE POINT ENERGY      -732.089016188960
Dispersion correction            ... done
Dispersion correction           -0.013887797
FINAL SINGLE POINT ENERGY      -732.092380557217
Dispersion correction            ... done
Dispersion correction           -0.013885183
FINAL SINGLE POINT ENERGY      -732.092635217922
Dispersion correction            ... done
FINAL SINGLE POINT ENERGY      -732.092742044589
FINAL SINGLE POINT ENERGY      -732.092779307640
FINAL SINGLE POINT ENERGY      -732.092803626497
FINAL SINGLE POINT ENERGY      -732.092813006540
Dispersion correction            ... done
Dispersion correction           -0.013885890
FINAL SINGLE POINT ENERGY      -732.092817209187
Dispersion correction            ... done
Dispersion correction           -0.013885363
FINAL SINGLE POINT ENERGY      -732.092817907259
Dispersion correction            ... done
                    ***********************HURRAY********************

CARTESIAN COORDINATES (ANGSTROEM)
---------------------------------
  C     -5.574134   -0.571662    0.796283
  C     -4.911309   -1.319577   -0.341985
  H     -5.153188   -0.861564   -1.315249
  H     -5.224728   -2.371233   -0.373339
  O     -3.478482   -1.381329   -0.215722
  C     -2.873336   -0.223662   -0.116506
  C     -1.659706    0.373337   -0.038753
  C     -2.830164    1.198232    0.028327
  O     -3.380498    2.265206    0.149133
  C     -0.213863    0.229571   -0.013668
  C      0.388252   -1.034018   -0.092872
  C      1.770361   -1.151712   -0.072763
  C      2.605028   -0.025395    0.023330
  C      1.989148    1.228822    0.102317
  C      0.602559    1.358969    0.085620
  H      0.141588    2.347849    0.150059
  H      2.592411    2.134181    0.178223
  C      4.129511   -0.206519    0.044694
  C      4.518206   -1.042240    1.278363
  H      4.059729   -2.041850    1.258602
  H      4.197469   -0.544687    2.206630
  H      5.610672   -1.178053    1.323081
  C      4.868530    1.135780    0.115984
  H      4.621793    1.694625    1.032073
  H      4.639184    1.774795   -0.750825
  H      5.955611    0.961918    0.120003
  C      4.573142   -0.934250   -1.237692
  H      5.666779   -1.066768   -1.245086
  H      4.119062   -1.932079   -1.325764
  H      4.292684   -0.358710   -2.133383
  H      2.209447   -2.150688   -0.135705
  H     -0.239596   -1.925524   -0.169330
  H     -6.666878   -0.631894    0.684507
  H     -5.303043   -1.014596    1.766159
  H     -5.292942    0.492826    0.798756

 Multiplicity           Mult            ....    1
 Number of Electrons    NEL             ....  124
 Basis Dimension        Dim             ....  328

ORBITAL ENERGIES
----------------

  NO   OCC          E(Eh)            E(eV)
   0   2.0000     -19.305806      -525.3377
   1   2.0000     -19.203079      -522.5424
   2   2.0000     -10.380544      -282.4690
   3   2.0000     -10.377884      -282.3966
   4   2.0000     -10.362163      -281.9688
   5   2.0000     -10.323929      -280.9284
   6   2.0000     -10.314087      -280.6606
   7   2.0000     -10.312663      -280.6218
   8   2.0000     -10.308578      -280.5107
   9   2.0000     -10.304925      -280.4113
  10   2.0000     -10.303045      -280.3601
  11   2.0000     -10.299485      -280.2632
  12   2.0000     -10.297696      -280.2145
  13   2.0000     -10.294337      -280.1232
  14   2.0000     -10.285712      -279.8885
  15   2.0000     -10.285581      -279.8849
  16   2.0000     -10.285416      -279.8804
  17   2.0000      -1.210169       -32.9304
  18   2.0000      -1.123275       -30.5659
  19   2.0000      -1.015745       -27.6398
  20   2.0000      -0.984357       -26.7857
  21   2.0000      -0.938317       -25.5329
  22   2.0000      -0.889682       -24.2095
  23   2.0000      -0.864919       -23.5356
  24   2.0000      -0.864034       -23.5116
  25   2.0000      -0.798971       -21.7411
  26   2.0000      -0.797252       -21.6943
  27   2.0000      -0.778411       -21.1816
  28   2.0000      -0.748673       -20.3724
  29   2.0000      -0.717655       -19.5284
  30   2.0000      -0.666770       -18.1437
  31   2.0000      -0.660167       -17.9641
  32   2.0000      -0.658227       -17.9113
  33   2.0000      -0.619041       -16.8450
  34   2.0000      -0.589291       -16.0354
  35   2.0000      -0.582816       -15.8592
  36   2.0000      -0.580739       -15.8027
  37   2.0000      -0.552988       -15.0476
  38   2.0000      -0.550006       -14.9664
  39   2.0000      -0.547571       -14.9002
  40   2.0000      -0.540548       -14.7091
  41   2.0000      -0.531471       -14.4621
  42   2.0000      -0.529535       -14.4094
  43   2.0000      -0.523160       -14.2359
  44   2.0000      -0.504613       -13.7312
  45   2.0000      -0.498552       -13.5663
  46   2.0000      -0.497825       -13.5465
  47   2.0000      -0.488711       -13.2985
  48   2.0000      -0.477485       -12.9930
  49   2.0000      -0.473216       -12.8769
  50   2.0000      -0.465871       -12.6770
  51   2.0000      -0.463445       -12.6110
  52   2.0000      -0.453170       -12.3314
  53   2.0000      -0.443210       -12.0604
  54   2.0000      -0.437660       -11.9093
  55   2.0000      -0.432635       -11.7726
  56   2.0000      -0.422467       -11.4959
  57   2.0000      -0.415701       -11.3118
  58   2.0000      -0.378067       -10.2877
  59   2.0000      -0.349396        -9.5075
  60   2.0000      -0.320196        -8.7130
  61   2.0000      -0.310105        -8.4384
  62   0.0000       0.023552         0.6409
  63   0.0000       0.060638         1.6501
  64   0.0000       0.127764         3.4766
  65   0.0000       0.130446         3.5496
  66   0.0000       0.143638         3.9086

MULLIKEN ATOMIC CHARGES
-----------------------
   0 C :   -0.130169
   1 C :    0.152437
   2 H :    0.050467
   3 H :    0.051305
   4 O :   -0.293183
   5 C :    0.043970
   6 C :   -0.010076
   7 C :    0.104314
   8 O :   -0.231311
   9 C :    0.002851
  10 C :   -0.019350
  11 C :   -0.053156
  12 C :    0.077842
  13 C :   -0.050658
  14 C :   -0.014636
  15 H :    0.031686
  16 H :    0.010690
  17 C :   -0.348805
  18 C :    0.035005
  19 H :    0.028260
  20 H :    0.036155
  21 H :    0.030343
  22 C :    0.033129
  23 H :    0.037433
  24 H :    0.037644
  25 H :    0.032064
  26 C :    0.031003
  27 H :    0.030167
  28 H :    0.028236
  29 H :    0.037625
  30 H :    0.012496
  31 H :    0.021103
  32 H :    0.054046
  33 H :    0.053980
  34 H :    0.087091
Sum of atomic charges:   -0.0000000

LOEWDIN ATOMIC CHARGES
----------------------
   0 C :   -0.082512
   1 C :    0.090313
   2 H :    0.025692
   3 H :    0.030049
   4 O :   -0.071136
   5 C :    0.027841
   6 C :   -0.023763
   7 C :    0.043848
   8 O :   -0.221673
   9 C :   -0.058537
  10 C :   -0.005136
  11 C :   -0.028393
  12 C :    0.002140
  13 C :   -0.033963
  14 C :    0.000419
  15 H :    0.043072
  16 H :    0.033060
  17 C :   -0.058101
  18 C :   -0.043348
  19 H :    0.023806
  20 H :    0.028791
  21 H :    0.025550
  22 C :   -0.052062
  23 H :    0.026420
  24 H :    0.026920
  25 H :    0.028538
  26 C :   -0.043965
  27 H :    0.025687
  28 H :    0.023347
  29 H :    0.029245
  30 H :    0.029686
  31 H :    0.037846
  32 H :    0.041621
  33 H :    0.035116
  34 H :    0.043581

  Mayer bond orders larger than 0.100000
B(  0-C ,  1-C ) :   1.0904 B(  0-C , 32-H ) :   0.9635 B(  0-C , 33-H ) :   0.9673
B(  0-C , 34-H ) :   0.9610 B(  1-C ,  2-H ) :   0.9624 B(  1-C ,  3-H ) :   0.9657
B(  1-C ,  4-O ) :   0.8797 B(  4-O ,  5-C ) :   1.2067 B(  5-C ,  6-C ) :   1.3507
B(  5-C ,  7-C ) :   1.0566 B(  6-C ,  7-C ) :   1.0184 B(  6-C ,  9-C ) :   0.9770
B(  7-C ,  8-O ) :   2.0839 B(  9-C , 10-C ) :   1.3464 B(  9-C , 14-C ) :   1.3756
B( 10-C , 11-C ) :   1.4298 B( 10-C , 31-H ) :   0.9963 B( 11-C , 12-C ) :   1.3586
B( 11-C , 30-H ) :   0.9936 B( 12-C , 13-C ) :   1.4372 B( 12-C , 17-C ) :   0.9148
B( 13-C , 14-C ) :   1.3669 B( 13-C , 16-H ) :   0.9834 B( 14-C , 15-H ) :   0.9985
B( 17-C , 18-C ) :   1.0273 B( 17-C , 22-C ) :   1.0733 B( 17-C , 26-C ) :   1.0290
B( 18-C , 19-H ) :   0.9683 B( 18-C , 20-H ) :   0.9697 B( 18-C , 21-H ) :   0.9711
B( 22-C , 23-H ) :   0.9573 B( 22-C , 24-H ) :   0.9586 B( 22-C , 25-H ) :   0.9660
B( 26-C , 27-H ) :   0.9711 B( 26-C , 28-H ) :   0.9678 B( 26-C , 29-H ) :   0.9705

Dispersion correction           -0.013885239
FINAL SINGLE POINT ENERGY      -732.092817946236

DIPOLE MOMENT
-------------
                                X             Y             Z
Electronic contribution:    -18.40555       4.58461      -1.49313
Nuclear contribution   :     18.92419      -5.92226       1.37087
                        -----------------------------------------
Total Dipole Moment    :      0.51864      -1.33766      -0.12227
                        -----------------------------------------
Magnitude (a.u.)       :      1.43988
Magnitude (Debye)      :      3.65989

Rotational constants in cm-1:     0.043974     0.005855     0.005404
Rotational constants in MHz :  1318.308773   175.524512   161.995206

                             ****ORCA TERMINATED NORMALLY****
TOTAL RUN TIME: 0 days 1 hours 3 minutes 57 seconds 698 msec
