                         Program Version 4.2.0 -  RELEASE  -
|  1> # ORCA input file
|  2> # -43.44532815
|  3> ! wB97X-D3 def2-SVP Opt
|  4> * xyz 0 1
|  5>    C       -3.02620        -2.49810        -0.00180
|  6>    C       -2.25710        -1.21150        -0.00090
|  7>    C       -2.92920         0.00020         0.00020
|  8>    C       -2.25680         1.21170         0.00100
|  9>    C       -0.86150         1.21500         0.00080
| 10>    C       -0.17520        -0.00010        -0.00040
| 11>    C       -0.86170        -1.21500        -0.00150
| 12>    C       -0.12220        -2.52080        -0.00310
| 13>    H       -0.38350        -3.10620         0.87840
| 14>    H        0.95300        -2.36610        -0.00780
| 15>    H       -0.39110        -3.10830        -0.88080
| 16>    C        1.30940        -0.00020        -0.00020
| 17>    C        2.01360        -0.00620         1.19880
| 18>    C        3.39710        -0.00610         1.19840
| 19>    C        4.09180         0.00000         0.00050
| 20>    C        3.39770         0.00600        -1.19780
| 21>    C        2.01420         0.00590        -1.19890
| 22>    H        1.46880         0.01060        -2.13180
| 23>    H        3.93640         0.01070        -2.13450
| 24>    H        5.17210         0.00010         0.00080
| 25>    H        3.93530        -0.01080         2.13540
| 26>    H        1.46770        -0.01080         2.13150
| 27>    C       -0.12170         2.52070         0.00220
| 28>    H       -0.38610         3.10780        -0.87720
| 29>    H       -0.38740         3.10660         0.88200
| 30>    H        0.95340         2.36580         0.00290
| 31>    C       -3.02570         2.49840         0.00240
| 32>    H       -2.78070         3.09490        -0.87600
| 33>    H       -4.09570         2.30580         0.00130
| 34>    H       -2.78210         3.09210         0.88320
| 35>    H       -4.01080         0.00030         0.00060
| 36>    H       -2.78500        -3.09070        -0.88400
| 37>    H       -4.09610        -2.30520         0.00220
| 38>    H       -2.77900        -3.09570         0.87520
| 39> *
| 40>
| 41>                          ****END OF INPUT****
 Total Charge           Charge          ....    0
 Multiplicity           Mult            ....    1
 Number of Electrons    NEL             ....  114
Dispersion correction           -0.014847892
FINAL SINGLE POINT ENERGY      -619.955229386717
Dispersion correction            ... done
Dispersion correction           -0.014713382
FINAL SINGLE POINT ENERGY      -619.958884022386
Dispersion correction            ... done
Dispersion correction           -0.014708648
FINAL SINGLE POINT ENERGY      -619.958975614225
Dispersion correction            ... done
Dispersion correction           -0.014708343
FINAL SINGLE POINT ENERGY      -619.959004887961
Dispersion correction            ... done
                    ***********************HURRAY********************

CARTESIAN COORDINATES (ANGSTROEM)
---------------------------------
  C     -3.046875   -2.512695   -0.002651
  C     -2.269494   -1.221320   -0.001308
  C     -2.940858    0.000181    0.000010
  C     -2.269350    1.221607    0.001352
  C     -0.863596    1.226757    0.001484
  C     -0.172198    0.000019    0.000034
  C     -0.863740   -1.226636   -0.001435
  C     -0.134153   -2.548218   -0.003011
  H     -0.399246   -3.148660    0.882381
  H      0.955136   -2.422617   -0.006072
  H     -0.404090   -3.149340   -0.886422
  C      1.326791   -0.000066   -0.000001
  C      2.040981   -0.004967    1.203611
  C      3.434731   -0.005062    1.204833
  C      4.135737   -0.000223   -0.000096
  C      3.434650    0.004695   -1.204979
  C      2.040904    0.004754   -1.203662
  H      1.489887    0.008641   -2.148385
  H      3.977431    0.008545   -2.153818
  H      5.228732   -0.000285   -0.000135
  H      3.977574   -0.008970    2.153636
  H      1.490030   -0.008796    2.148372
  C     -0.133862    2.548256    0.003279
  H     -0.400304    3.149705   -0.881007
  H     -0.402333    3.148427    0.887801
  H      0.955417    2.422538    0.004465
  C     -3.046577    2.513073    0.002707
  H     -2.812069    3.128358   -0.880959
  H     -4.129091    2.323725    0.001791
  H     -2.813140    3.125896    0.888375
  H     -4.036007    0.000247    0.000032
  H     -2.814420   -3.124962   -0.888972
  H     -4.129365   -2.323221   -0.000510
  H     -2.811533   -3.128585    0.880361

 Multiplicity           Mult            ....    1
 Number of Electrons    NEL             ....  114
 Basis Dimension        Dim             ....  314

ORBITAL ENERGIES
----------------

  NO   OCC          E(Eh)            E(eV)
   0   2.0000     -10.298255      -280.2298
   1   2.0000     -10.293494      -280.1002
   2   2.0000     -10.293391      -280.0974
   3   2.0000     -10.292438      -280.0715
   4   2.0000     -10.290955      -280.0311
   5   2.0000     -10.290929      -280.0304
   6   2.0000     -10.289252      -279.9848
   7   2.0000     -10.288389      -279.9613
   8   2.0000     -10.288316      -279.9593
   9   2.0000     -10.286316      -279.9049
  10   2.0000     -10.286280      -279.9039
  11   2.0000     -10.283295      -279.8227
  12   2.0000     -10.283278      -279.8222
  13   2.0000     -10.278620      -279.6955
  14   2.0000     -10.278598      -279.6949
  15   2.0000     -10.277821      -279.6737
  16   2.0000      -0.982457       -26.7340
  17   2.0000      -0.961216       -26.1560
  18   2.0000      -0.904171       -24.6037
  19   2.0000      -0.892267       -24.2798
  20   2.0000      -0.853086       -23.2137
  21   2.0000      -0.840704       -22.8767
  22   2.0000      -0.828939       -22.5566
  23   2.0000      -0.814196       -22.1554
  24   2.0000      -0.769634       -20.9428
  25   2.0000      -0.737931       -20.0801
  26   2.0000      -0.719462       -19.5776
  27   2.0000      -0.707654       -19.2562
  28   2.0000      -0.668736       -18.1972
  29   2.0000      -0.645859       -17.5747
  30   2.0000      -0.614944       -16.7335
  31   2.0000      -0.594162       -16.1680
  32   2.0000      -0.568465       -15.4687
  33   2.0000      -0.557435       -15.1686
  34   2.0000      -0.548928       -14.9371
  35   2.0000      -0.532926       -14.5017
  36   2.0000      -0.521649       -14.1948
  37   2.0000      -0.521517       -14.1912
  38   2.0000      -0.516266       -14.0483
  39   2.0000      -0.503508       -13.7012
  40   2.0000      -0.491692       -13.3796
  41   2.0000      -0.491356       -13.3705
  42   2.0000      -0.488381       -13.2895
  43   2.0000      -0.485264       -13.2047
  44   2.0000      -0.482355       -13.1256
  45   2.0000      -0.472691       -12.8626
  46   2.0000      -0.461206       -12.5501
  47   2.0000      -0.453662       -12.3448
  48   2.0000      -0.450682       -12.2637
  49   2.0000      -0.438395       -11.9293
  50   2.0000      -0.421596       -11.4722
  51   2.0000      -0.416532       -11.3344
  52   2.0000      -0.408110       -11.1052
  53   2.0000      -0.340722        -9.2715
  54   2.0000      -0.332523        -9.0484
  55   2.0000      -0.317434        -8.6378
  56   2.0000      -0.303365        -8.2550
  57   0.0000       0.063090         1.7168
  58   0.0000       0.069619         1.8944
  59   0.0000       0.082250         2.2381
  60   0.0000       0.084500         2.2993
  61   0.0000       0.142273         3.8715

MULLIKEN ATOMIC CHARGES
-----------------------
   0 C :    0.049300
   1 C :   -0.114500
   2 C :   -0.081786
   3 C :   -0.114502
   4 C :   -0.127552
   5 C :   -0.023137
   6 C :   -0.127548
   7 C :    0.068196
   8 H :    0.035810
   9 H :    0.052675
  10 H :    0.035635
  11 C :   -0.151909
  12 C :    0.009550
  13 C :   -0.016160
  14 C :   -0.018921
  15 C :   -0.016173
  16 C :    0.009539
  17 H :    0.012799
  18 H :    0.020163
  19 H :    0.020074
  20 H :    0.020163
  21 H :    0.012791
  22 C :    0.068203
  23 H :    0.035747
  24 H :    0.035696
  25 H :    0.052676
  26 C :    0.049297
  27 H :    0.040857
  28 H :    0.029458
  29 H :    0.040902
  30 H :   -0.018559
  31 H :    0.040950
  32 H :    0.029458
  33 H :    0.040809
Sum of atomic charges:   -0.0000000

LOEWDIN ATOMIC CHARGES
----------------------
   0 C :   -0.055605
   1 C :   -0.035649
   2 C :   -0.040436
   3 C :   -0.035649
   4 C :   -0.029629
   5 C :   -0.029744
   6 C :   -0.029629
   7 C :   -0.057724
   8 H :    0.035237
   9 H :    0.035097
  10 H :    0.035180
  11 C :   -0.023188
  12 C :   -0.026942
  13 C :   -0.029874
  14 C :   -0.036799
  15 C :   -0.029878
  16 C :   -0.026947
  17 H :    0.033390
  18 H :    0.032762
  19 H :    0.031428
  20 H :    0.032762
  21 H :    0.033388
  22 C :   -0.057724
  23 H :    0.035217
  24 H :    0.035201
  25 H :    0.035097
  26 C :   -0.055605
  27 H :    0.035406
  28 H :    0.030651
  29 H :    0.035414
  30 H :    0.023325
  31 H :    0.035424
  32 H :    0.030651
  33 H :    0.035395

  Mayer bond orders larger than 0.100000
B(  0-C ,  1-C ) :   1.0698 B(  0-C , 31-H ) :   0.9511 B(  0-C , 32-H ) :   0.9615
B(  0-C , 33-H ) :   0.9510 B(  1-C ,  2-C ) :   1.3996 B(  1-C ,  6-C ) :   1.3987
B(  2-C ,  3-C ) :   1.3996 B(  2-C , 30-H ) :   0.9877 B(  3-C ,  4-C ) :   1.3987
B(  3-C , 26-C ) :   1.0698 B(  4-C ,  5-C ) :   1.4383 B(  4-C , 22-C ) :   1.0871
B(  5-C ,  6-C ) :   1.4383 B(  5-C , 11-C ) :   0.9433 B(  6-C ,  7-C ) :   1.0871
B(  7-C ,  8-H ) :   0.9482 B(  7-C ,  9-H ) :   0.9437 B(  7-C , 10-H ) :   0.9481
B( 11-C , 12-C ) :   1.4080 B( 11-C , 16-C ) :   1.4080 B( 12-C , 13-C ) :   1.3898
B( 12-C , 21-H ) :   0.9932 B( 13-C , 14-C ) :   1.3953 B( 13-C , 20-H ) :   0.9881
B( 14-C , 15-C ) :   1.3953 B( 14-C , 19-H ) :   0.9891 B( 15-C , 16-C ) :   1.3898
B( 15-C , 18-H ) :   0.9881 B( 16-C , 17-H ) :   0.9932 B( 22-C , 23-H ) :   0.9482
B( 22-C , 24-H ) :   0.9481 B( 22-C , 25-H ) :   0.9437 B( 26-C , 27-H ) :   0.9511
B( 26-C , 28-H ) :   0.9615 B( 26-C , 29-H ) :   0.9511

Dispersion correction           -0.014709859
FINAL SINGLE POINT ENERGY      -619.959009080745

DIPOLE MOMENT
-------------
                                X             Y             Z
Electronic contribution:      6.73185      -0.00041      -0.00059
Nuclear contribution   :     -6.71616       0.00041       0.00064
                        -----------------------------------------
Total Dipole Moment    :      0.01569       0.00000       0.00005
                        -----------------------------------------
Magnitude (a.u.)       :      0.01569
Magnitude (Debye)      :      0.03987

Rotational constants in cm-1:     0.029245     0.012741     0.009857
Rotational constants in MHz :   876.739266   381.973064   295.505290

                             ****ORCA TERMINATED NORMALLY****
TOTAL RUN TIME: 0 days 0 hours 31 minutes 48 seconds 611 msec
