                         Program Version 4.2.0 -  RELEASE  -
|  1> # ORCA input file
|  2> # -44.87604998
|  3> ! wB97X-D3 def2-SVP Opt
|  4> * xyz 0 1
|  5>    C       -4.28280        -0.37210         0.01970
|  6>    N       -2.91020         0.04510        -0.00520
|  7>    C       -1.80520        -0.71570         0.00130
|  8>    C       -0.67560         0.08730        -0.00190
|  9>    C       -1.25340         1.38750        -0.00590
| 10>    N       -2.57120         1.34400        -0.00650
| 11>    O       -0.60550         2.55930        -0.01120
| 12>    H       -1.26800         3.26300        -0.01510
| 13>    C        0.72760        -0.29290        -0.00240
| 14>    C        1.71610         0.69050         0.00550
| 15>    C        3.04170         0.30940         0.00570
| 16>    C        3.43460        -1.01640        -0.00180
| 17>    C        2.44740        -1.98710        -0.00980
| 18>    C        1.11090        -1.63550        -0.01000
| 19>    H        0.36390        -2.41230        -0.01650
| 20>    H        2.72550        -3.03020        -0.01580
| 21>    H        4.48240        -1.27060        -0.00130
| 22>    F        3.99220         1.27080         0.01350
| 23>    H        1.45800         1.73580         0.01130
| 24>    F       -1.93630        -2.04260         0.00250
| 25>    H       -4.70150        -0.24280         1.02000
| 26>    H       -4.34150        -1.42050        -0.26640
| 27>    H       -4.85000         0.23900        -0.68110
| 28> *
| 29>
| 30>                          ****END OF INPUT****
 Total Charge           Charge          ....    0
 Multiplicity           Mult            ....    1
 Number of Electrons    NEL             ....  108
Dispersion correction           -0.008117155
FINAL SINGLE POINT ENERGY      -769.495658411071
Dispersion correction            ... done
Dispersion correction           -0.008096278
FINAL SINGLE POINT ENERGY      -769.497625113555
Dispersion correction            ... done
Dispersion correction           -0.008093958
FINAL SINGLE POINT ENERGY      -769.497758662416
Dispersion correction            ... done
FINAL SINGLE POINT ENERGY      -769.497782552606
FINAL SINGLE POINT ENERGY      -769.497791871488
FINAL SINGLE POINT ENERGY      -769.497801390635
FINAL SINGLE POINT ENERGY      -769.497813394032
FINAL SINGLE POINT ENERGY      -769.497829974411
FINAL SINGLE POINT ENERGY      -769.497842295609
FINAL SINGLE POINT ENERGY      -769.497855494790
FINAL SINGLE POINT ENERGY      -769.497869992838
Dispersion correction            ... done
Dispersion correction           -0.008087101
FINAL SINGLE POINT ENERGY      -769.497873638166
Dispersion correction            ... done
Dispersion correction           -0.008087127
FINAL SINGLE POINT ENERGY      -769.497876549637
Dispersion correction            ... done
                    ***********************HURRAY********************

CARTESIAN COORDINATES (ANGSTROEM)
---------------------------------
  C     -4.300562   -0.370519   -0.014623
  N     -2.922616    0.053419    0.006595
  C     -1.816010   -0.703389   -0.021146
  C     -0.686067    0.097961    0.010598
  C     -1.285060    1.392222    0.058337
  N     -2.598669    1.363759    0.056000
  O     -0.619651    2.553857    0.103537
  H     -1.276358    3.261003    0.134056
  C      0.733153   -0.289776   -0.001240
  C      1.734359    0.691795   -0.028110
  C      3.067047    0.307903   -0.039544
  C      3.459665   -1.023216   -0.025863
  C      2.462602   -1.995773    0.000805
  C      1.116952   -1.641766    0.013559
  H      0.358266   -2.424351    0.037035
  H      2.741947   -3.052120    0.012782
  H      4.521017   -1.276860   -0.035566
  F      4.005596    1.259688   -0.065791
  H      1.485155    1.752562   -0.039456
  F     -1.928383   -2.016067   -0.072801
  H     -4.814904   -0.023182    0.892161
  H     -4.331478   -1.465799   -0.054353
  H     -4.806901    0.041650   -0.898373

 Multiplicity           Mult            ....    1
 Number of Electrons    NEL             ....  108
 Basis Dimension        Dim             ....  250

ORBITAL ENERGIES
----------------

  NO   OCC          E(Eh)            E(eV)
   0   2.0000     -24.846360      -676.1038
   1   2.0000     -24.791121      -674.6007
   2   2.0000     -19.284872      -524.7680
   3   2.0000     -14.523952      -395.2168
   4   2.0000     -14.446839      -393.1185
   5   2.0000     -10.421669      -283.5880
   6   2.0000     -10.378610      -282.4163
   7   2.0000     -10.368966      -282.1539
   8   2.0000     -10.350259      -281.6449
   9   2.0000     -10.317002      -280.7399
  10   2.0000     -10.303326      -280.3678
  11   2.0000     -10.299237      -280.2565
  12   2.0000     -10.291400      -280.0432
  13   2.0000     -10.290586      -280.0211
  14   2.0000     -10.288422      -279.9622
  15   2.0000      -1.374872       -37.4122
  16   2.0000      -1.316393       -35.8209
  17   2.0000      -1.204707       -32.7817
  18   2.0000      -1.167231       -31.7620
  19   2.0000      -0.981054       -26.6958
  20   2.0000      -0.965164       -26.2635
  21   2.0000      -0.922634       -25.1061
  22   2.0000      -0.869447       -23.6589
  23   2.0000      -0.853514       -23.2253
  24   2.0000      -0.819410       -22.2973
  25   2.0000      -0.751900       -20.4602
  26   2.0000      -0.740581       -20.1522
  27   2.0000      -0.716012       -19.4837
  28   2.0000      -0.710674       -19.3384
  29   2.0000      -0.694725       -18.9044
  30   2.0000      -0.647640       -17.6232
  31   2.0000      -0.635197       -17.2846
  32   2.0000      -0.614824       -16.7302
  33   2.0000      -0.605882       -16.4869
  34   2.0000      -0.592258       -16.1162
  35   2.0000      -0.579078       -15.7575
  36   2.0000      -0.578846       -15.7512
  37   2.0000      -0.566091       -15.4041
  38   2.0000      -0.555558       -15.1175
  39   2.0000      -0.538053       -14.6412
  40   2.0000      -0.536795       -14.6069
  41   2.0000      -0.529200       -14.4003
  42   2.0000      -0.521003       -14.1772
  43   2.0000      -0.501326       -13.6418
  44   2.0000      -0.484578       -13.1860
  45   2.0000      -0.472111       -12.8468
  46   2.0000      -0.466951       -12.7064
  47   2.0000      -0.459010       -12.4903
  48   2.0000      -0.438444       -11.9307
  49   2.0000      -0.404940       -11.0190
  50   2.0000      -0.385986       -10.5032
  51   2.0000      -0.333081        -9.0636
  52   2.0000      -0.330684        -8.9984
  53   2.0000      -0.299467        -8.1489
  54   0.0000       0.049685         1.3520
  55   0.0000       0.074304         2.0219
  56   0.0000       0.107195         2.9169
  57   0.0000       0.144265         3.9257
  58   0.0000       0.148467         4.0400

MULLIKEN ATOMIC CHARGES
-----------------------
   0 C :    0.092470
   1 N :   -0.238844
   2 C :    0.328564
   3 C :   -0.184173
   4 C :    0.137967
   5 N :   -0.157395
   6 O :   -0.200507
   7 H :    0.195595
   8 C :    0.091765
   9 C :   -0.125935
  10 C :    0.293109
  11 C :   -0.095361
  12 C :   -0.002306
  13 C :   -0.063173
  14 H :    0.012137
  15 H :    0.023404
  16 H :    0.027156
  17 F :   -0.207258
  18 H :    0.034833
  19 F :   -0.165585
  20 H :    0.070604
  21 H :    0.062457
  22 H :    0.070475
Sum of atomic charges:   -0.0000000

LOEWDIN ATOMIC CHARGES
----------------------
   0 C :    0.032644
   1 N :    0.050767
   2 C :    0.098190
   3 C :   -0.154028
   4 C :    0.032306
   5 N :   -0.166014
   6 O :   -0.040292
   7 H :    0.101391
   8 C :   -0.004962
   9 C :   -0.059742
  10 C :    0.085176
  11 C :   -0.071126
  12 C :   -0.016103
  13 C :   -0.049645
  14 H :    0.026566
  15 H :    0.035475
  16 H :    0.040079
  17 F :   -0.070511
  18 H :    0.041376
  19 F :   -0.027835
  20 H :    0.039097
  21 H :    0.038123
  22 H :    0.039069

  Mayer bond orders larger than 0.100000
B(  0-C ,  1-N ) :   0.9331 B(  0-C , 20-H ) :   0.9732 B(  0-C , 21-H ) :   0.9715
B(  0-C , 22-H ) :   0.9733 B(  1-N ,  2-C ) :   1.2316 B(  1-N ,  5-N ) :   1.0666
B(  2-C ,  3-C ) :   1.3955 B(  2-C , 19-F ) :   1.1245 B(  3-C ,  4-C ) :   1.2564
B(  3-C ,  8-C ) :   1.0214 B(  4-C ,  5-N ) :   1.5904 B(  4-C ,  6-O ) :   1.2270
B(  6-O ,  7-H ) :   0.9464 B(  8-C ,  9-C ) :   1.3419 B(  8-C , 13-C ) :   1.3667
B(  9-C , 10-C ) :   1.3625 B(  9-C , 18-H ) :   0.9869 B( 10-C , 11-C ) :   1.3808
B( 10-C , 17-F ) :   1.0588 B( 11-C , 12-C ) :   1.3605 B( 11-C , 16-H ) :   0.9910
B( 12-C , 13-C ) :   1.4118 B( 12-C , 15-H ) :   0.9835 B( 13-C , 14-H ) :   0.9877

Dispersion correction           -0.008087389
FINAL SINGLE POINT ENERGY      -769.497877355608

DIPOLE MOMENT
-------------
                                X             Y             Z
Electronic contribution:      6.27889       1.79174      -0.18474
Nuclear contribution   :     -7.70678      -2.26188       0.19229
                        -----------------------------------------
Total Dipole Moment    :     -1.42789      -0.47014       0.00755
                        -----------------------------------------
Magnitude (a.u.)       :      1.50331
Magnitude (Debye)      :      3.82111

Rotational constants in cm-1:     0.041680     0.012305     0.009521
Rotational constants in MHz :  1249.538770   368.888266   285.427643

                             ****ORCA TERMINATED NORMALLY****
TOTAL RUN TIME: 0 days 0 hours 42 minutes 14 seconds 919 msec
