                         Program Version 4.2.0 -  RELEASE  -
|  1> # ORCA input file
|  2> # -49.77801792
|  3> ! wB97X-D3 def2-SVP Opt
|  4> * xyz 0 1
|  5>    C       -5.02910        -1.25950         0.36130
|  6>    H       -6.11080        -1.27900         0.24660
|  7>    H       -4.61460        -2.14850        -0.10950
|  8>    H       -4.79660        -1.29420         1.42280
|  9>    C       -4.45030         0.00260        -0.28170
| 10>    C       -2.94300         0.00080        -0.20800
| 11>    C       -2.18030         0.01130        -1.36830
| 12>    C       -0.79850         0.01070        -1.31410
| 13>    C       -0.14160        -0.00060        -0.09090
| 14>    C       -0.90030        -0.01140         1.07320
| 15>    C       -2.28070        -0.01060         1.01390
| 16>    H       -2.84640        -0.01880         1.93420
| 17>    H       -0.39920        -0.02010         2.03140
| 18>    C        1.33830        -0.00080        -0.02710
| 19>    C        2.03240         1.20880         0.00630
| 20>    C        3.41700         1.19230         0.06900
| 21>    C        4.12470        -0.00090         0.09930
| 22>    C        3.41760        -1.19370         0.06430
| 23>    C        2.03260        -1.21000         0.00160
| 24>    C        1.28030        -2.50710        -0.03350
| 25>    H        1.96440        -3.35180        -0.01330
| 26>    H        0.60730        -2.58040         0.82020
| 27>    H        0.67130        -2.56990        -0.93460
| 28>    H        3.95670        -2.13080         0.08750
| 29>    C        5.62350         0.00260         0.14470
| 30>    H        6.00120        -0.91710         0.58550
| 31>    H        6.02710         0.08430        -0.86530
| 32>    H        5.99160         0.84820         0.72180
| 33>    H        3.95680         2.12900         0.09600
| 34>    C        1.27960         2.50560        -0.02400
| 35>    H        1.96270         3.35050         0.01640
| 36>    H        0.68430         2.57910        -0.93350
| 37>    H        0.59370         2.56800         0.82020
| 38>    H       -0.21990         0.01890        -2.22750
| 39>    H       -2.67470         0.02010        -2.33020
| 40>    C       -5.02550         1.25890         0.37580
| 41>    H       -4.61040         2.15200        -0.08650
| 42>    H       -4.79050         1.28180         1.43710
| 43>    H       -6.10750         1.28150         0.26360
| 44>    H       -4.73950         0.00900        -1.33890
| 45> *
| 46>
| 47>                          ****END OF INPUT****
 Total Charge           Charge          ....    0
 Multiplicity           Mult            ....    1
 Number of Electrons    NEL             ....  130
Dispersion correction           -0.017564908
FINAL SINGLE POINT ENERGY      -698.511022535079
Dispersion correction            ... done
Dispersion correction           -0.017441268
FINAL SINGLE POINT ENERGY      -698.515292599015
Dispersion correction            ... done
Dispersion correction           -0.017421700
FINAL SINGLE POINT ENERGY      -698.515426113485
Dispersion correction            ... done
Dispersion correction           -0.017416108
FINAL SINGLE POINT ENERGY      -698.515461800721
Dispersion correction            ... done
Dispersion correction           -0.017417398
FINAL SINGLE POINT ENERGY      -698.515466241436
Dispersion correction            ... done
                    ***********************HURRAY********************

CARTESIAN COORDINATES (ANGSTROEM)
---------------------------------
  C     -5.087159   -1.266812    0.352665
  H     -6.181664   -1.287993    0.230572
  H     -4.673017   -2.171897   -0.115973
  H     -4.872158   -1.323229    1.432188
  C     -4.492068    0.001274   -0.268673
  C     -2.973989    0.000298   -0.201005
  C     -2.202190    0.006799   -1.365673
  C     -0.809347    0.006401   -1.310924
  C     -0.140609   -0.000675   -0.083820
  C     -0.910468   -0.007245    1.085366
  C     -2.300840   -0.006667    1.026705
  H     -2.870915   -0.011709    1.960911
  H     -0.405675   -0.012889    2.056020
  C      1.353887   -0.000876   -0.022058
  C      2.055031    1.217841    0.013046
  C      3.450021    1.196420    0.071561
  C      4.168266   -0.000769    0.094149
  C      3.450939   -1.197372    0.061608
  C      2.055147   -1.218890    0.003247
  C      1.314490   -2.532509   -0.029914
  H      2.011712   -3.381764   -0.009099
  H      0.630447   -2.628271    0.827245
  H      0.694356   -2.618750   -0.935188
  H      3.993981   -2.147849    0.084116
  C      5.675461    0.002293    0.124009
  H      6.071857   -0.926556    0.558897
  H      6.088562    0.092268   -0.893992
  H      6.064462    0.847810    0.710161
  H      3.992643    2.147022    0.102097
  C      1.313446    2.531138   -0.010531
  H      2.009707    3.380570    0.027810
  H      0.702495    2.628466   -0.920957
  H      0.620630    2.615441    0.840712
  H     -0.226226    0.011506   -2.236633
  H     -2.701960    0.012462   -2.339278
  C     -5.085159    1.267634    0.358105
  H     -4.670920    2.174040   -0.107894
  H     -4.868114    1.319827    1.437438
  H     -6.179843    1.290305    0.237855
  H     -4.761521    0.003708   -1.339072

 Multiplicity           Mult            ....    1
 Number of Electrons    NEL             ....  130
 Basis Dimension        Dim             ....  362

ORBITAL ENERGIES
----------------

  NO   OCC          E(Eh)            E(eV)
   0   2.0000     -10.296317      -280.1770
   1   2.0000     -10.294983      -280.1407
   2   2.0000     -10.293912      -280.1116
   3   2.0000     -10.292507      -280.0734
   4   2.0000     -10.292414      -280.0708
   5   2.0000     -10.290818      -280.0274
   6   2.0000     -10.290363      -280.0150
   7   2.0000     -10.289886      -280.0020
   8   2.0000     -10.289482      -279.9910
   9   2.0000     -10.288981      -279.9774
  10   2.0000     -10.285380      -279.8794
  11   2.0000     -10.283776      -279.8358
  12   2.0000     -10.280710      -279.7523
  13   2.0000     -10.280709      -279.7523
  14   2.0000     -10.279830      -279.7284
  15   2.0000     -10.279786      -279.7272
  16   2.0000     -10.277236      -279.6578
  17   2.0000     -10.277136      -279.6551
  18   2.0000      -0.982366       -26.7315
  19   2.0000      -0.963763       -26.2253
  20   2.0000      -0.918515       -24.9941
  21   2.0000      -0.888409       -24.1748
  22   2.0000      -0.885512       -24.0960
  23   2.0000      -0.851523       -23.1711
  24   2.0000      -0.840390       -22.8682
  25   2.0000      -0.802166       -21.8281
  26   2.0000      -0.790166       -21.5015
  27   2.0000      -0.779043       -21.1988
  28   2.0000      -0.778198       -21.1758
  29   2.0000      -0.720727       -19.6120
  30   2.0000      -0.708155       -19.2699
  31   2.0000      -0.671550       -18.2738
  32   2.0000      -0.669668       -18.2226
  33   2.0000      -0.659337       -17.9415
  34   2.0000      -0.613079       -16.6827
  35   2.0000      -0.583198       -15.8696
  36   2.0000      -0.581702       -15.8289
  37   2.0000      -0.563714       -15.3394
  38   2.0000      -0.541867       -14.7450
  39   2.0000      -0.531266       -14.4565
  40   2.0000      -0.527267       -14.3477
  41   2.0000      -0.519940       -14.1483
  42   2.0000      -0.515267       -14.0211
  43   2.0000      -0.513392       -13.9701
  44   2.0000      -0.511476       -13.9180
  45   2.0000      -0.502753       -13.6806
  46   2.0000      -0.501933       -13.6583
  47   2.0000      -0.495496       -13.4831
  48   2.0000      -0.489978       -13.3330
  49   2.0000      -0.485731       -13.2174
  50   2.0000      -0.481061       -13.0903
  51   2.0000      -0.474183       -12.9032
  52   2.0000      -0.458770       -12.4838
  53   2.0000      -0.453388       -12.3373
  54   2.0000      -0.443680       -12.0731
  55   2.0000      -0.435148       -11.8410
  56   2.0000      -0.428202       -11.6520
  57   2.0000      -0.425411       -11.5760
  58   2.0000      -0.420352       -11.4383
  59   2.0000      -0.414201       -11.2710
  60   2.0000      -0.407333       -11.0841
  61   2.0000      -0.338452        -9.2098
  62   2.0000      -0.322975        -8.7886
  63   2.0000      -0.317392        -8.6367
  64   2.0000      -0.312504        -8.5037
  65   0.0000       0.066817         1.8182
  66   0.0000       0.071544         1.9468
  67   0.0000       0.074476         2.0266
  68   0.0000       0.082043         2.2325
  69   0.0000       0.139379         3.7927

MULLIKEN ATOMIC CHARGES
-----------------------
   0 C :   -0.010572
   1 H :    0.033691
   2 H :    0.037734
   3 H :    0.027831
   4 C :   -0.105677
   5 C :   -0.002078
   6 C :   -0.040935
   7 C :    0.007032
   8 C :   -0.112128
   9 C :    0.004900
  10 C :   -0.045158
  11 H :    0.006860
  12 H :    0.009534
  13 C :   -0.002335
  14 C :   -0.116345
  15 C :   -0.084221
  16 C :   -0.060577
  17 C :   -0.083362
  18 C :   -0.116237
  19 C :    0.105446
  20 H :    0.025103
  21 H :    0.038012
  22 H :    0.038422
  23 H :   -0.017691
  24 C :    0.028669
  25 H :    0.034008
  26 H :    0.054443
  27 H :    0.038571
  28 H :   -0.017587
  29 C :    0.105591
  30 H :    0.025168
  31 H :    0.038492
  32 H :    0.037791
  33 H :    0.009852
  34 H :    0.002813
  35 C :   -0.010162
  36 H :    0.037578
  37 H :    0.027820
  38 H :    0.033687
  39 H :    0.016019
Sum of atomic charges:   -0.0000000

LOEWDIN ATOMIC CHARGES
----------------------
   0 C :   -0.054390
   1 H :    0.026033
   2 H :    0.029100
   3 H :    0.023773
   4 C :   -0.040123
   5 C :   -0.020343
   6 C :   -0.034587
   7 C :   -0.024788
   8 C :   -0.024270
   9 C :   -0.023585
  10 C :   -0.030848
  11 H :    0.027776
  12 H :    0.032640
  13 C :   -0.039190
  14 C :   -0.017628
  15 C :   -0.048702
  16 C :   -0.027710
  17 C :   -0.049208
  18 C :   -0.017726
  19 C :   -0.053337
  20 H :    0.028229
  21 H :    0.037925
  22 H :    0.038302
  23 H :    0.024289
  24 C :   -0.055353
  25 H :    0.031774
  26 H :    0.039929
  27 H :    0.033691
  28 H :    0.024375
  29 C :   -0.053335
  30 H :    0.028261
  31 H :    0.038385
  32 H :    0.037778
  33 H :    0.032585
  34 H :    0.029113
  35 C :   -0.054336
  36 H :    0.029064
  37 H :    0.023815
  38 H :    0.026003
  39 H :    0.026618

  Mayer bond orders larger than 0.100000
B(  0-C ,  1-H ) :   0.9733 B(  0-C ,  2-H ) :   0.9716 B(  0-C ,  3-H ) :   0.9694
B(  0-C ,  4-C ) :   1.0579 B(  4-C ,  5-C ) :   0.9812 B(  4-C , 35-C ) :   1.0578
B(  4-C , 39-H ) :   0.9318 B(  5-C ,  6-C ) :   1.4189 B(  5-C , 10-C ) :   1.3638
B(  6-C ,  7-C ) :   1.3766 B(  6-C , 34-H ) :   0.9900 B(  7-C ,  8-C ) :   1.4114
B(  7-C , 33-H ) :   0.9889 B(  8-C ,  9-C ) :   1.3969 B(  8-C , 13-C ) :   0.9546
B(  9-C , 10-C ) :   1.4050 B(  9-C , 12-H ) :   0.9893 B( 10-C , 11-H ) :   0.9926
B( 13-C , 14-C ) :   1.4280 B( 13-C , 18-C ) :   1.4333 B( 14-C , 15-C ) :   1.3995
B( 14-C , 29-C ) :   1.0643 B( 15-C , 16-C ) :   1.3793 B( 15-C , 28-H ) :   0.9914
B( 16-C , 17-C ) :   1.3849 B( 16-C , 24-C ) :   1.0361 B( 17-C , 18-C ) :   1.3940
B( 17-C , 23-H ) :   0.9903 B( 18-C , 19-C ) :   1.0642 B( 19-C , 20-H ) :   0.9618
B( 19-C , 21-H ) :   0.9448 B( 19-C , 22-H ) :   0.9444 B( 24-C , 25-H ) :   0.9678
B( 24-C , 26-H ) :   0.9602 B( 24-C , 27-H ) :   0.9670 B( 29-C , 30-H ) :   0.9617
B( 29-C , 31-H ) :   0.9445 B( 29-C , 32-H ) :   0.9447 B( 35-C , 36-H ) :   0.9715
B( 35-C , 37-H ) :   0.9694 B( 35-C , 38-H ) :   0.9733

Dispersion correction           -0.017418439
FINAL SINGLE POINT ENERGY      -698.515466668286

DIPOLE MOMENT
-------------
                                X             Y             Z
Electronic contribution:      8.76819      -0.00590      -1.50617
Nuclear contribution   :     -8.97828       0.01244       1.47441
                        -----------------------------------------
Total Dipole Moment    :     -0.21009       0.00653      -0.03176
                        -----------------------------------------
Magnitude (a.u.)       :      0.21258
Magnitude (Debye)      :      0.54034

Rotational constants in cm-1:     0.037881     0.006429     0.005898
Rotational constants in MHz :  1135.636766   192.746280   176.805983

                             ****ORCA TERMINATED NORMALLY****
TOTAL RUN TIME: 0 days 0 hours 50 minutes 30 seconds 929 msec
