                         Program Version 4.2.0 -  RELEASE  -
|  1> # ORCA input file
|  2> # -36.72649503
|  3> ! wB97X-D3 def2-SVP Opt
|  4> * xyz 0 1
|  5>    C       -3.87530         0.52470        -0.04830
|  6>    H       -4.71850        -0.15960        -0.11560
|  7>    O       -2.71610        -0.26790        -0.05330
|  8>    C       -1.53950         0.50110         0.02970
|  9>    C       -0.32850        -0.38430         0.02290
| 10>    C       -0.49920        -1.76550         0.02350
| 11>    C        0.58000        -2.62860         0.01570
| 12>    C        1.87520        -2.13060         0.00450
| 13>    C        2.07290        -0.76730        -0.00010
| 14>    C        0.98500         0.10570         0.00980
| 15>    N        1.28750         1.51120         0.00430
| 16>    O        0.37540         2.30400         0.13980
| 17>    O        2.44830         1.83790        -0.13560
| 18>    H        3.06650        -0.34550        -0.00920
| 19>    H        2.72090        -2.80020        -0.00020
| 20>    H        0.41120        -3.69470         0.01880
| 21>    H       -1.50690        -2.14660         0.02900
| 22>    H       -1.54600         1.10840         0.94990
| 23>    H       -1.48970         1.21110        -0.81210
| 24>    H       -3.89200         1.21170        -0.90310
| 25>    H       -3.95240         1.11190         0.87480
| 26> *
| 27>
| 28>                          ****END OF INPUT****
 Total Charge           Charge          ....    0
 Multiplicity           Mult            ....    1
 Number of Electrons    NEL             ....   88
Dispersion correction           -0.006772975
FINAL SINGLE POINT ENERGY      -589.979365878383
Dispersion correction            ... done
Dispersion correction           -0.006786382
FINAL SINGLE POINT ENERGY      -589.981216424234
Dispersion correction            ... done
Dispersion correction           -0.006774367
FINAL SINGLE POINT ENERGY      -589.981290222620
Dispersion correction            ... done
FINAL SINGLE POINT ENERGY      -589.980977315429
FINAL SINGLE POINT ENERGY      -589.981546986853
Dispersion correction            ... done
Dispersion correction           -0.006778167
FINAL SINGLE POINT ENERGY      -589.981554070614
Dispersion correction            ... done
Dispersion correction           -0.006779119
FINAL SINGLE POINT ENERGY      -589.981555428046
Dispersion correction            ... done
                    ***********************HURRAY********************

CARTESIAN COORDINATES (ANGSTROEM)
---------------------------------
  C     -3.881050    0.491813   -0.045477
  H     -4.724196   -0.208360   -0.112664
  O     -2.702318   -0.257485   -0.060438
  C     -1.551096    0.527062    0.023484
  C     -0.327392   -0.363320    0.018796
  C     -0.508473   -1.751203    0.018761
  C      0.569163   -2.630634    0.016960
  C      1.876074   -2.147158    0.010146
  C      2.090169   -0.776431    0.003074
  C      1.001400    0.094014    0.009830
  N      1.322861    1.534129    0.004984
  O      0.410509    2.319837    0.155955
  O      2.478027    1.856896   -0.146642
  H      3.093148   -0.350776   -0.009555
  H      2.726380   -2.832193    0.008633
  H      0.382945   -3.707485    0.019905
  H     -1.532329   -2.124142    0.018425
  H     -1.554139    1.144173    0.942182
  H     -1.494674    1.244804   -0.816985
  H     -3.933698    1.192871   -0.900689
  H     -3.982510    1.080488    0.886514

 Multiplicity           Mult            ....    1
 Number of Electrons    NEL             ....   88
 Basis Dimension        Dim             ....  213

ORBITAL ENERGIES
----------------

  NO   OCC          E(Eh)            E(eV)
   0   2.0000     -19.273273      -524.4524
   1   2.0000     -19.272235      -524.4242
   2   2.0000     -19.254241      -523.9345
   3   2.0000     -14.675518      -399.3411
   4   2.0000     -10.355932      -281.7992
   5   2.0000     -10.351678      -281.6835
   6   2.0000     -10.341132      -281.3965
   7   2.0000     -10.334433      -281.2142
   8   2.0000     -10.320807      -280.8434
   9   2.0000     -10.318639      -280.7845
  10   2.0000     -10.315073      -280.6874
  11   2.0000     -10.309028      -280.5229
  12   2.0000      -1.356650       -36.9163
  13   2.0000      -1.174718       -31.9657
  14   2.0000      -1.162110       -31.6226
  15   2.0000      -1.008509       -27.4429
  16   2.0000      -0.921105       -25.0645
  17   2.0000      -0.904237       -24.6056
  18   2.0000      -0.837924       -22.8011
  19   2.0000      -0.803021       -21.8513
  20   2.0000      -0.766980       -20.8706
  21   2.0000      -0.715814       -19.4783
  22   2.0000      -0.701357       -19.0849
  23   2.0000      -0.662168       -18.0185
  24   2.0000      -0.659195       -17.9376
  25   2.0000      -0.620088       -16.8735
  26   2.0000      -0.613216       -16.6865
  27   2.0000      -0.606557       -16.5052
  28   2.0000      -0.594035       -16.1645
  29   2.0000      -0.575533       -15.6611
  30   2.0000      -0.559332       -15.2202
  31   2.0000      -0.549601       -14.9554
  32   2.0000      -0.519157       -14.1270
  33   2.0000      -0.508336       -13.8325
  34   2.0000      -0.484705       -13.1895
  35   2.0000      -0.478992       -13.0340
  36   2.0000      -0.461128       -12.5479
  37   2.0000      -0.432014       -11.7557
  38   2.0000      -0.411186       -11.1890
  39   2.0000      -0.407772       -11.0960
  40   2.0000      -0.394428       -10.7329
  41   2.0000      -0.374591       -10.1931
  42   2.0000      -0.364343        -9.9143
  43   2.0000      -0.351777        -9.5724
  44   0.0000      -0.011454        -0.3117
  45   0.0000       0.049084         1.3356
  46   0.0000       0.079586         2.1656
  47   0.0000       0.142235         3.8704
  48   0.0000       0.146296         3.9809

MULLIKEN ATOMIC CHARGES
-----------------------
   0 C :    0.147125
   1 H :    0.047486
   2 O :   -0.407637
   3 C :    0.317133
   4 C :   -0.159510
   5 C :   -0.045747
   6 C :    0.026700
   7 C :   -0.011008
   8 C :   -0.035539
   9 C :    0.111935
  10 N :    0.237711
  11 O :   -0.254948
  12 O :   -0.241397
  13 H :    0.046078
  14 H :    0.033488
  15 H :    0.034880
  16 H :    0.040637
  17 H :    0.037115
  18 H :    0.030392
  19 H :    0.022107
  20 H :    0.022997
Sum of atomic charges:    0.0000000

LOEWDIN ATOMIC CHARGES
----------------------
   0 C :    0.063381
   1 H :    0.025764
   2 O :   -0.167760
   3 C :    0.069797
   4 C :   -0.012559
   5 C :   -0.018105
   6 C :   -0.002535
   7 C :   -0.029603
   8 C :   -0.006285
   9 C :   -0.034815
  10 N :    0.282457
  11 O :   -0.202071
  12 O :   -0.200646
  13 H :    0.046604
  14 H :    0.038546
  15 H :    0.039591
  16 H :    0.041017
  17 H :    0.024629
  18 H :    0.021563
  19 H :    0.010195
  20 H :    0.010836

  Mayer bond orders larger than 0.100000
B(  0-C ,  1-H ) :   0.9831 B(  0-C ,  2-O ) :   0.9743 B(  0-C , 19-H ) :   0.9688
B(  0-C , 20-H ) :   0.9686 B(  2-O ,  3-C ) :   1.0140 B(  3-C ,  4-C ) :   1.0018
B(  3-C , 17-H ) :   0.9208 B(  3-C , 18-H ) :   0.9235 B(  4-C ,  5-C ) :   1.4199
B(  4-C ,  9-C ) :   1.3988 B(  5-C ,  6-C ) :   1.3750 B(  5-C , 16-H ) :   0.9832
B(  6-C ,  7-C ) :   1.3699 B(  6-C , 15-H ) :   0.9913 B(  7-C ,  8-C ) :   1.3794
B(  7-C , 14-H ) :   0.9882 B(  8-C ,  9-C ) :   1.4001 B(  8-C , 13-H ) :   0.9793
B(  9-C , 10-N ) :   0.8505 B( 10-N , 11-O ) :   1.5219 B( 10-N , 12-O ) :   1.5707
B( 11-O , 12-O ) :   0.2617

Dispersion correction           -0.006779853
FINAL SINGLE POINT ENERGY      -589.981555582618

DIPOLE MOMENT
-------------
                                X             Y             Z
Electronic contribution:      9.77007       3.14857       0.00154
Nuclear contribution   :    -10.41005      -4.25560       0.03509
                        -----------------------------------------
Total Dipole Moment    :     -0.63998      -1.10703       0.03663
                        -----------------------------------------
Magnitude (a.u.)       :      1.27923
Magnitude (Debye)      :      3.25155

Rotational constants in cm-1:     0.041945     0.025948     0.016155
Rotational constants in MHz :  1257.491471   777.887775   484.303141

                             ****ORCA TERMINATED NORMALLY****
TOTAL RUN TIME: 0 days 0 hours 19 minutes 10 seconds 640 msec
