                         Program Version 4.2.0 -  RELEASE  -
|  1> # ORCA input file
|  2> # -40.95396674
|  3> ! wB97X-D3 def2-SVP Opt
|  4> * xyz 0 1
|  5>    C       -3.38570        -2.16370         0.00190
|  6>    H       -3.87400        -1.75370        -0.89010
|  7>    O       -2.00810        -1.88570         0.00230
|  8>    C       -1.73760        -0.50550        -0.00100
|  9>    C       -0.25830        -0.26050        -0.00070
| 10>    C        0.59840        -1.35470        -0.00040
| 11>    C        1.96740        -1.17020        -0.00030
| 12>    C        2.54320         0.09220        -0.00060
| 13>    C        1.70350         1.18250        -0.00060
| 14>    C        0.31730         1.01980        -0.00060
| 15>    N       -0.47130         2.22310        -0.00020
| 16>    O        0.11950         3.28250         0.00670
| 17>    O       -1.68220         2.12330        -0.00680
| 18>    H        2.09980         2.18660        -0.00060
| 19>    H        3.61520         0.20200        -0.00090
| 20>    F        2.76490        -2.24680        -0.00020
| 21>    H        0.18180        -2.34800        -0.00020
| 22>    H       -2.19140        -0.02830        -0.88520
| 23>    H       -2.19290        -0.02370         0.87990
| 24>    H       -3.48140        -3.24730         0.00340
| 25>    H       -3.87540        -1.75100         0.89180
| 26> *
| 27>
| 28>                          ****END OF INPUT****
 Total Charge           Charge          ....    0
 Multiplicity           Mult            ....    1
 Number of Electrons    NEL             ....   96
Dispersion correction           -0.007087057
FINAL SINGLE POINT ENERGY      -689.116241989209
Dispersion correction            ... done
Dispersion correction           -0.007103618
FINAL SINGLE POINT ENERGY      -689.117794077380
Dispersion correction            ... done
Dispersion correction           -0.007091812
FINAL SINGLE POINT ENERGY      -689.118004950862
Dispersion correction            ... done
FINAL SINGLE POINT ENERGY      -689.118055127331
Dispersion correction            ... done
Dispersion correction           -0.007096847
FINAL SINGLE POINT ENERGY      -689.118015475323
Dispersion correction            ... done
Dispersion correction           -0.007095880
FINAL SINGLE POINT ENERGY      -689.118063052641
Dispersion correction            ... done
                    ***********************HURRAY********************

CARTESIAN COORDINATES (ANGSTROEM)
---------------------------------
  C     -3.363452   -2.190891    0.001732
  H     -3.877048   -1.795927   -0.895546
  O     -2.002876   -1.870448    0.002182
  C     -1.761391   -0.497140   -0.000843
  C     -0.269820   -0.244294   -0.000650
  C      0.582383   -1.349798   -0.000607
  C      1.958947   -1.179475   -0.000616
  C      2.551129    0.077883   -0.000504
  C      1.720060    1.186058   -0.000281
  C      0.334400    1.027098   -0.000428
  N     -0.463037    2.263637   -0.000339
  O      0.127362    3.318945    0.005403
  O     -1.672181    2.159505   -0.006203
  H      2.123916    2.198189    0.000088
  H      3.637906    0.171776   -0.000536
  F      2.736520   -2.256729   -0.000708
  H      0.154747   -2.351679   -0.000478
  H     -2.217594   -0.010473   -0.883755
  H     -2.218869   -0.006485    0.879194
  H     -3.449744   -3.285315    0.004359
  H     -3.878657   -1.791537    0.896135

 Multiplicity           Mult            ....    1
 Number of Electrons    NEL             ....   96
 Basis Dimension        Dim             ....  222

ORBITAL ENERGIES
----------------

  NO   OCC          E(Eh)            E(eV)
   0   2.0000     -24.821219      -675.4197
   1   2.0000     -19.276633      -524.5438
   2   2.0000     -19.275879      -524.5233
   3   2.0000     -19.258672      -524.0551
   4   2.0000     -14.680133      -399.4667
   5   2.0000     -10.403931      -283.1053
   6   2.0000     -10.360057      -281.9115
   7   2.0000     -10.357448      -281.8405
   8   2.0000     -10.346576      -281.5446
   9   2.0000     -10.344509      -281.4884
  10   2.0000     -10.333065      -281.1770
  11   2.0000     -10.322593      -280.8920
  12   2.0000     -10.315973      -280.7119
  13   2.0000      -1.360458       -37.0199
  14   2.0000      -1.349174       -36.7129
  15   2.0000      -1.178593       -32.0711
  16   2.0000      -1.167027       -31.7564
  17   2.0000      -1.018981       -27.7279
  18   2.0000      -0.928019       -25.2527
  19   2.0000      -0.915387       -24.9089
  20   2.0000      -0.848029       -23.0760
  21   2.0000      -0.807260       -21.9667
  22   2.0000      -0.778518       -21.1846
  23   2.0000      -0.732343       -19.9281
  24   2.0000      -0.714423       -19.4404
  25   2.0000      -0.670266       -18.2389
  26   2.0000      -0.663609       -18.0577
  27   2.0000      -0.661664       -18.0048
  28   2.0000      -0.641789       -17.4640
  29   2.0000      -0.615801       -16.7568
  30   2.0000      -0.601407       -16.3651
  31   2.0000      -0.593927       -16.1616
  32   2.0000      -0.588979       -16.0269
  33   2.0000      -0.582393       -15.8477
  34   2.0000      -0.562103       -15.2956
  35   2.0000      -0.543054       -14.7773
  36   2.0000      -0.522255       -14.2113
  37   2.0000      -0.521670       -14.1954
  38   2.0000      -0.505644       -13.7593
  39   2.0000      -0.482778       -13.1370
  40   2.0000      -0.463717       -12.6184
  41   2.0000      -0.437514       -11.9054
  42   2.0000      -0.414919       -11.2905
  43   2.0000      -0.413153       -11.2425
  44   2.0000      -0.398133       -10.8337
  45   2.0000      -0.377308       -10.2671
  46   2.0000      -0.368258       -10.0208
  47   2.0000      -0.356371        -9.6973
  48   0.0000      -0.014078        -0.3831
  49   0.0000       0.038123         1.0374
  50   0.0000       0.079684         2.1683
  51   0.0000       0.138685         3.7738
  52   0.0000       0.149935         4.0799

MULLIKEN ATOMIC CHARGES
-----------------------
   0 C :    0.145171
   1 H :    0.024414
   2 O :   -0.408474
   3 C :    0.314677
   4 C :   -0.154117
   5 C :   -0.123999
   6 C :    0.347137
   7 C :   -0.089432
   8 C :   -0.031236
   9 C :    0.118390
  10 N :    0.240413
  11 O :   -0.242120
  12 O :   -0.255059
  13 H :    0.054554
  14 H :    0.044438
  15 F :   -0.187378
  16 H :    0.051056
  17 H :    0.038324
  18 H :    0.038121
  19 H :    0.050690
  20 H :    0.024428
Sum of atomic charges:   -0.0000000

LOEWDIN ATOMIC CHARGES
----------------------
   0 C :    0.064236
   1 H :    0.011456
   2 O :   -0.167529
   3 C :    0.070239
   4 C :    0.000244
   5 C :   -0.049553
   6 C :    0.103607
   7 C :   -0.058762
   8 C :    0.007794
   9 C :   -0.050283
  10 N :    0.283886
  11 O :   -0.201639
  12 O :   -0.202568
  13 H :    0.050447
  14 H :    0.048318
  15 F :   -0.050313
  16 H :    0.051037
  17 H :    0.025468
  18 H :    0.025392
  19 H :    0.027052
  20 H :    0.011471

  Mayer bond orders larger than 0.100000
B(  0-C ,  1-H ) :   0.9690 B(  0-C ,  2-O ) :   0.9705 B(  0-C , 19-H ) :   0.9831
B(  0-C , 20-H ) :   0.9690 B(  2-O ,  3-C ) :   1.0182 B(  3-C ,  4-C ) :   0.9995
B(  3-C , 17-H ) :   0.9221 B(  3-C , 18-H ) :   0.9222 B(  4-C ,  5-C ) :   1.3929
B(  4-C ,  9-C ) :   1.3874 B(  5-C ,  6-C ) :   1.3124 B(  5-C , 16-H ) :   0.9944
B(  6-C ,  7-C ) :   1.3485 B(  6-C , 15-F ) :   1.0816 B(  7-C ,  8-C ) :   1.3569
B(  7-C , 14-H ) :   0.9928 B(  8-C ,  9-C ) :   1.3922 B(  8-C , 13-H ) :   0.9775
B(  9-C , 10-N ) :   0.8597 B( 10-N , 11-O ) :   1.5688 B( 10-N , 12-O ) :   1.5213
B( 11-O , 12-O ) :   0.2592

Dispersion correction           -0.007096059
FINAL SINGLE POINT ENERGY      -689.118063255848

DIPOLE MOMENT
-------------
                                X             Y             Z
Electronic contribution:     11.70414       3.51960      -0.00208
Nuclear contribution   :    -11.71409      -4.34536       0.00099
                        -----------------------------------------
Total Dipole Moment    :     -0.00995      -0.82576      -0.00108
                        -----------------------------------------
Magnitude (a.u.)       :      0.82582
Magnitude (Debye)      :      2.09907

Rotational constants in cm-1:     0.026510     0.025272     0.013002
Rotational constants in MHz :   794.749795   757.644566   389.782849

                             ****ORCA TERMINATED NORMALLY****
TOTAL RUN TIME: 0 days 0 hours 16 minutes 15 seconds 929 msec
