                         Program Version 4.2.0 -  RELEASE  -
|  1> # ORCA input file
|  2> # -52.77852112
|  3> ! wB97X-D3 def2-SVP Opt
|  4> * xyz 0 1
|  5>    C        0.23560         2.46070        -0.80070
|  6>    C        1.71330         2.09180        -0.80670
|  7>    C        2.22860         1.81020         0.60260
|  8>    C        3.63010         1.19220         0.59470
|  9>    O        3.74470        -0.03320        -0.09260
| 10>    C        3.13410        -1.14790         0.52810
| 11>    C        1.67280        -1.29050         0.18680
| 12>    C        0.67850        -1.29450         1.14810
| 13>    N       -0.61700        -1.34630         0.87270
| 14>    C       -0.99050        -1.40510        -0.39570
| 15>    C       -0.06970        -1.43910        -1.45310
| 16>    C        1.26950        -1.37810        -1.14840
| 17>    H        2.01710        -1.38720        -1.92810
| 18>    H       -0.43100        -1.50310        -2.46610
| 19>    O       -2.29460        -1.44340        -0.70700
| 20>    C       -3.22440        -1.32870         0.36140
| 21>    C       -3.32820         0.10050         0.89240
| 22>    C       -3.75390         1.08690        -0.19280
| 23>    C       -3.78760         2.51740         0.32920
| 24>    H       -4.48780         2.60510         1.15740
| 25>    H       -4.09610         3.20350        -0.45600
| 26>    H       -2.80280         2.81850         0.67960
| 27>    H       -3.05540         1.02070        -1.02940
| 28>    H       -4.74300         0.80910        -0.56450
| 29>    H       -2.35720         0.39170         1.29650
| 30>    H       -4.05130         0.10900         1.70990
| 31>    H       -2.93340        -2.00660         1.17040
| 32>    H       -4.17640        -1.64930        -0.06890
| 33>    H        0.91650        -1.24490         2.20420
| 34>    H        3.68150        -2.01820         0.14750
| 35>    H        3.26580        -1.09960         1.61840
| 36>    H        4.32350         1.85910         0.07420
| 37>    H        3.97630         1.06710         1.63320
| 38>    H        2.27150         2.73770         1.17780
| 39>    H        1.53760         1.13530         1.11060
| 40>    H        2.29640         2.90180        -1.25040
| 41>    H        1.86150         1.20140        -1.42000
| 42>    H       -0.35720         1.63750        -0.40660
| 43>    H       -0.10990         2.67850        -1.80850
| 44>    H        0.06190         3.33800        -0.18050
| 45> *
| 46>
| 47>                          ****END OF INPUT****
 Total Charge           Charge          ....    0
 Multiplicity           Mult            ....    1
 Number of Electrons    NEL             ....  130
Dispersion correction           -0.019907003
FINAL SINGLE POINT ENERGY      -751.798307169266
Dispersion correction            ... done
Dispersion correction           -0.019574281
FINAL SINGLE POINT ENERGY      -751.801809632025
Dispersion correction            ... done
Dispersion correction           -0.020536716
FINAL SINGLE POINT ENERGY      -751.801900191657
Dispersion correction            ... done
FINAL SINGLE POINT ENERGY      -751.802457129803
FINAL SINGLE POINT ENERGY      -751.802598271066
FINAL SINGLE POINT ENERGY      -751.802641058517
FINAL SINGLE POINT ENERGY      -751.802648117934
FINAL SINGLE POINT ENERGY      -751.802657174394
FINAL SINGLE POINT ENERGY      -751.802660218514
FINAL SINGLE POINT ENERGY      -751.802664097806
Dispersion correction            ... done
Dispersion correction           -0.020010502
FINAL SINGLE POINT ENERGY      -751.802664739815
Dispersion correction            ... done
Dispersion correction           -0.020005928
FINAL SINGLE POINT ENERGY      -751.802665069143
Dispersion correction            ... done
                    ***********************HURRAY********************

CARTESIAN COORDINATES (ANGSTROEM)
---------------------------------
  C      0.182925    2.444871   -0.445395
  C      1.660363    2.136461   -0.659386
  C      2.405546    1.856042    0.644089
  C      3.762350    1.184412    0.451166
  O      3.727731   -0.046986   -0.233367
  C      3.137481   -1.126222    0.446469
  C      1.664984   -1.290739    0.145314
  C      0.695789   -1.301446    1.137002
  N     -0.618354   -1.385532    0.903120
  C     -1.025119   -1.466224   -0.348949
  C     -0.139144   -1.486956   -1.444622
  C      1.211622   -1.395613   -1.181977
  H      1.934840   -1.383775   -2.002459
  H     -0.539936   -1.561641   -2.456386
  O     -2.333430   -1.531202   -0.627265
  C     -3.270138   -1.341284    0.428917
  C     -3.397003    0.120071    0.835198
  C     -3.724127    1.058268   -0.323903
  C     -3.804469    2.520865    0.098010
  H     -4.580142    2.676452    0.865516
  H     -4.043951    3.173985   -0.754649
  H     -2.846957    2.864880    0.520859
  H     -2.956321    0.939777   -1.106960
  H     -4.677090    0.748113   -0.788440
  H     -2.458947    0.433891    1.322348
  H     -4.182195    0.184827    1.609198
  H     -2.984014   -1.959018    1.293362
  H     -4.219746   -1.717323    0.020377
  H      0.989429   -1.222495    2.191757
  H      3.681262   -2.028263    0.120128
  H      3.286427   -1.038171    1.540470
  H      4.418801    1.831533   -0.152579
  H      4.252112    1.049867    1.436886
  H      2.569901    2.795396    1.200972
  H      1.777113    1.230842    1.300475
  H      2.153153    2.969542   -1.190651
  H      1.757768    1.259284   -1.317881
  H     -0.328174    1.588416    0.025570
  H     -0.331508    2.655385   -1.395208
  H      0.040570    3.317708    0.212577

 Multiplicity           Mult            ....    1
 Number of Electrons    NEL             ....  130
 Basis Dimension        Dim             ....  353

ORBITAL ENERGIES
----------------

  NO   OCC          E(Eh)            E(eV)
   0   2.0000     -19.270058      -524.3649
   1   2.0000     -19.241285      -523.5820
   2   2.0000     -14.424805      -392.5189
   3   2.0000     -10.383217      -282.5417
   4   2.0000     -10.343589      -281.4634
   5   2.0000     -10.335918      -281.2546
   6   2.0000     -10.333390      -281.1858
   7   2.0000     -10.330076      -281.0957
   8   2.0000     -10.312050      -280.6052
   9   2.0000     -10.297845      -280.2186
  10   2.0000     -10.296084      -280.1707
  11   2.0000     -10.281324      -279.7691
  12   2.0000     -10.280545      -279.7478
  13   2.0000     -10.280010      -279.7333
  14   2.0000     -10.277555      -279.6665
  15   2.0000     -10.275665      -279.6151
  16   2.0000     -10.274550      -279.5847
  17   2.0000      -1.186507       -32.2865
  18   2.0000      -1.144768       -31.1507
  19   2.0000      -1.052973       -28.6529
  20   2.0000      -0.925664       -25.1886
  21   2.0000      -0.911086       -24.7919
  22   2.0000      -0.903078       -24.5740
  23   2.0000      -0.881705       -23.9924
  24   2.0000      -0.842703       -22.9311
  25   2.0000      -0.827775       -22.5249
  26   2.0000      -0.789632       -21.4870
  27   2.0000      -0.761502       -20.7215
  28   2.0000      -0.737890       -20.0790
  29   2.0000      -0.723947       -19.6996
  30   2.0000      -0.702645       -19.1199
  31   2.0000      -0.683179       -18.5902
  32   2.0000      -0.672757       -18.3067
  33   2.0000      -0.629374       -17.1261
  34   2.0000      -0.623865       -16.9762
  35   2.0000      -0.596429       -16.2297
  36   2.0000      -0.589573       -16.0431
  37   2.0000      -0.580176       -15.7874
  38   2.0000      -0.568593       -15.4722
  39   2.0000      -0.561129       -15.2691
  40   2.0000      -0.548934       -14.9373
  41   2.0000      -0.543328       -14.7847
  42   2.0000      -0.538685       -14.6584
  43   2.0000      -0.529894       -14.4192
  44   2.0000      -0.518601       -14.1119
  45   2.0000      -0.507583       -13.8120
  46   2.0000      -0.504164       -13.7190
  47   2.0000      -0.495720       -13.4892
  48   2.0000      -0.484947       -13.1961
  49   2.0000      -0.477543       -12.9946
  50   2.0000      -0.462747       -12.5920
  51   2.0000      -0.459078       -12.4922
  52   2.0000      -0.451270       -12.2797
  53   2.0000      -0.444222       -12.0879
  54   2.0000      -0.438127       -11.9220
  55   2.0000      -0.429066       -11.6755
  56   2.0000      -0.416756       -11.3405
  57   2.0000      -0.414770       -11.2865
  58   2.0000      -0.412183       -11.2161
  59   2.0000      -0.406954       -11.0738
  60   2.0000      -0.397300       -10.8111
  61   2.0000      -0.376972       -10.2579
  62   2.0000      -0.364801        -9.9267
  63   2.0000      -0.347994        -9.4694
  64   2.0000      -0.314240        -8.5509
  65   0.0000       0.048526         1.3205
  66   0.0000       0.069436         1.8894
  67   0.0000       0.133947         3.6449
  68   0.0000       0.144665         3.9365
  69   0.0000       0.158362         4.3093

MULLIKEN ATOMIC CHARGES
-----------------------
   0 C :   -0.053666
   1 C :   -0.070816
   2 C :   -0.087713
   3 C :    0.189498
   4 O :   -0.409317
   5 C :    0.308118
   6 C :   -0.210979
   7 C :    0.040813
   8 N :   -0.165784
   9 C :    0.165343
  10 C :   -0.052197
  11 C :    0.054949
  12 H :    0.033238
  13 H :    0.027370
  14 O :   -0.333418
  15 C :    0.220829
  16 C :   -0.107009
  17 C :   -0.083459
  18 C :   -0.040096
  19 H :    0.026759
  20 H :    0.036229
  21 H :    0.029134
  22 H :    0.032979
  23 H :    0.019844
  24 H :    0.037538
  25 H :    0.027172
  26 H :    0.043345
  27 H :    0.028077
  28 H :    0.021197
  29 H :    0.039183
  30 H :    0.003365
  31 H :    0.026852
  32 H :    0.013866
  33 H :    0.029041
  34 H :    0.011043
  35 H :    0.023173
  36 H :    0.032324
  37 H :    0.028106
  38 H :    0.035777
  39 H :    0.029292
Sum of atomic charges:   -0.0000000

LOEWDIN ATOMIC CHARGES
----------------------
   0 C :   -0.066572
   1 C :   -0.047292
   2 C :   -0.065377
   3 C :    0.072025
   4 O :   -0.172888
   5 C :    0.081877
   6 C :   -0.101971
   7 C :    0.021051
   8 N :   -0.123525
   9 C :    0.072513
  10 C :   -0.067564
  11 C :    0.020018
  12 H :    0.039370
  13 H :    0.040989
  14 O :   -0.096219
  15 C :    0.085176
  16 C :   -0.060138
  17 C :   -0.048519
  18 C :   -0.066605
  19 H :    0.023392
  20 H :    0.027773
  21 H :    0.024882
  22 H :    0.023054
  23 H :    0.021791
  24 H :    0.025328
  25 H :    0.029320
  26 H :    0.021638
  27 H :    0.022299
  28 H :    0.022537
  29 H :    0.030207
  30 H :    0.012458
  31 H :    0.021922
  32 H :    0.008324
  33 H :    0.029355
  34 H :    0.019834
  35 H :    0.022673
  36 H :    0.023382
  37 H :    0.023346
  38 H :    0.027179
  39 H :    0.022958

  Mayer bond orders larger than 0.100000
B(  0-C ,  1-C ) :   1.0900 B(  0-C , 37-H ) :   0.9704 B(  0-C , 38-H ) :   0.9716
B(  0-C , 39-H ) :   0.9715 B(  1-C ,  2-C ) :   1.0435 B(  1-C , 35-H ) :   0.9534
B(  1-C , 36-H ) :   0.9495 B(  2-C ,  3-C ) :   1.0637 B(  2-C , 33-H ) :   0.9409
B(  2-C , 34-H ) :   0.9453 B(  3-C ,  4-O ) :   0.9900 B(  3-C , 31-H ) :   0.9557
B(  3-C , 32-H ) :   0.9539 B(  4-O ,  5-C ) :   1.0189 B(  5-C ,  6-C ) :   1.0114
B(  5-C , 29-H ) :   0.9420 B(  5-C , 30-H ) :   0.9389 B(  6-C ,  7-C ) :   1.4380
B(  6-C , 11-C ) :   1.3482 B(  7-C ,  8-N ) :   1.4723 B(  7-C , 28-H ) :   0.9790
B(  8-N ,  9-C ) :   1.4856 B(  9-C , 10-C ) :   1.2959 B(  9-C , 14-O ) :   1.1628
B( 10-C , 11-C ) :   1.4801 B( 10-C , 13-H ) :   0.9803 B( 11-C , 12-H ) :   0.9792
B( 14-O , 15-C ) :   0.9120 B( 15-C , 16-C ) :   1.0862 B( 15-C , 26-H ) :   0.9493
B( 15-C , 27-H ) :   0.9549 B( 16-C , 17-C ) :   1.0490 B( 16-C , 24-H ) :   0.9430
B( 16-C , 25-H ) :   0.9455 B( 17-C , 18-C ) :   1.0891 B( 17-C , 22-H ) :   0.9530
B( 17-C , 23-H ) :   0.9556 B( 18-C , 19-H ) :   0.9735 B( 18-C , 20-H ) :   0.9740
B( 18-C , 21-H ) :   0.9718

Dispersion correction           -0.020007897
FINAL SINGLE POINT ENERGY      -751.802664933427

DIPOLE MOMENT
-------------
                                X             Y             Z
Electronic contribution:      6.77278     -17.67769      -2.18450
Nuclear contribution   :     -6.69472      17.86360       2.44465
                        -----------------------------------------
Total Dipole Moment    :      0.07806       0.18592       0.26015
                        -----------------------------------------
Magnitude (a.u.)       :      0.32914
Magnitude (Debye)      :      0.83662

Rotational constants in cm-1:     0.023196     0.009686     0.007738
Rotational constants in MHz :   695.385441   290.390019   231.985800

                             ****ORCA TERMINATED NORMALLY****
TOTAL RUN TIME: 0 days 1 hours 48 minutes 22 seconds 527 msec
