                         Program Version 4.2.0 -  RELEASE  -
|  1> # ORCA input file
|  2> # -34.77768995
|  3> ! wB97X-D3 def2-SVP Opt
|  4> * xyz 0 1
|  5>    C       -3.57230        -1.43370         0.00610
|  6>    H       -3.51940        -2.03820        -0.90720
|  7>    O       -2.57570        -0.44440         0.01910
|  8>    C       -1.27270        -0.96930        -0.01480
|  9>    C       -0.31170         0.15960        -0.00720
| 10>    C        1.06750         0.12220        -0.00220
| 11>    N        1.66780         1.34170         0.00270
| 12>    C        0.81230         2.28780         0.00170
| 13>    S       -0.86040         1.78260        -0.00470
| 14>    H        1.07240         3.32710         0.00490
| 15>    C        1.83730        -1.12480        -0.00090
| 16>    O        1.33400        -2.22590        -0.01260
| 17>    O        3.15580        -0.93380         0.01570
| 18>    H        3.61470        -1.78870         0.01550
| 19>    H       -1.11240        -1.58520        -0.91590
| 20>    H       -1.08120        -1.62500         0.85120
| 21>    H       -4.52540        -0.91060         0.04290
| 22>    H       -3.48350        -2.09770         0.87420
| 23> *
| 24>
| 25>                          ****END OF INPUT****
 Total Charge           Charge          ....    0
 Multiplicity           Mult            ....    1
 Number of Electrons    NEL             ....   90
Dispersion correction           -0.005591842
FINAL SINGLE POINT ENERGY      -910.810658695860
Dispersion correction            ... done
Dispersion correction           -0.005575827
FINAL SINGLE POINT ENERGY      -910.812354230782
Dispersion correction            ... done
Dispersion correction           -0.005568883
FINAL SINGLE POINT ENERGY      -910.812634474553
Dispersion correction            ... done
FINAL SINGLE POINT ENERGY      -910.812684352387
Dispersion correction            ... done
Dispersion correction           -0.005568139
FINAL SINGLE POINT ENERGY      -910.812678472072
Dispersion correction            ... done
Dispersion correction           -0.005568724
FINAL SINGLE POINT ENERGY      -910.812697239147
Dispersion correction            ... done
                    ***********************HURRAY********************

CARTESIAN COORDINATES (ANGSTROEM)
---------------------------------
  C     -3.568324   -1.425409    0.001997
  H     -3.523225   -2.054762   -0.907375
  O     -2.562161   -0.455623    0.012330
  C     -1.270358   -0.984858   -0.008069
  C     -0.297595    0.152756   -0.002580
  C      1.078721    0.142137   -0.001278
  N      1.688519    1.369427    0.003462
  C      0.802575    2.308776    0.005134
  S     -0.844685    1.777974    0.000516
  H      1.044092    3.374685    0.009008
  C      1.849709   -1.120944   -0.004742
  O      1.329499   -2.213400   -0.015396
  O      3.168820   -0.947412    0.005841
  H      3.560485   -1.832884    0.002260
  H     -1.093393   -1.613367   -0.903421
  H     -1.074383   -1.638655    0.864630
  H     -4.534274   -0.904294    0.021599
  H     -3.506920   -2.090446    0.884585

 Multiplicity           Mult            ....    1
 Number of Electrons    NEL             ....   90
 Basis Dimension        Dim             ....  193

ORBITAL ENERGIES
----------------

  NO   OCC          E(Eh)            E(eV)
   0   2.0000     -88.986525     -2421.4465
   1   2.0000     -19.291023      -524.9354
   2   2.0000     -19.258217      -524.0427
   3   2.0000     -19.232934      -523.3547
   4   2.0000     -14.441418      -392.9710
   5   2.0000     -10.428873      -283.7841
   6   2.0000     -10.358570      -281.8710
   7   2.0000     -10.355919      -281.7989
   8   2.0000     -10.345044      -281.5030
   9   2.0000     -10.342226      -281.4263
  10   2.0000     -10.333152      -281.1794
  11   2.0000      -8.102742      -220.4868
  12   2.0000      -6.060832      -164.9236
  13   2.0000      -6.056786      -164.8135
  14   2.0000      -6.053946      -164.7362
  15   2.0000      -1.223748       -33.2999
  16   2.0000      -1.165743       -31.7215
  17   2.0000      -1.124189       -30.5907
  18   2.0000      -1.093766       -29.7629
  19   2.0000      -0.940945       -25.6044
  20   2.0000      -0.894155       -24.3312
  21   2.0000      -0.843675       -22.9576
  22   2.0000      -0.777303       -21.1515
  23   2.0000      -0.752681       -20.4815
  24   2.0000      -0.700033       -19.0489
  25   2.0000      -0.668717       -18.1967
  26   2.0000      -0.628888       -17.1129
  27   2.0000      -0.601333       -16.3631
  28   2.0000      -0.601142       -16.3579
  29   2.0000      -0.584401       -15.9024
  30   2.0000      -0.574153       -15.6235
  31   2.0000      -0.570120       -15.5138
  32   2.0000      -0.542955       -14.7746
  33   2.0000      -0.526988       -14.3401
  34   2.0000      -0.504763       -13.7353
  35   2.0000      -0.502511       -13.6740
  36   2.0000      -0.490173       -13.3383
  37   2.0000      -0.475271       -12.9328
  38   2.0000      -0.435123       -11.8403
  39   2.0000      -0.423119       -11.5137
  40   2.0000      -0.384614       -10.4659
  41   2.0000      -0.383086       -10.4243
  42   2.0000      -0.372793       -10.1442
  43   2.0000      -0.372331       -10.1317
  44   2.0000      -0.340537        -9.2665
  45   0.0000       0.028530         0.7763
  46   0.0000       0.070339         1.9140
  47   0.0000       0.113328         3.0838
  48   0.0000       0.138428         3.7668
  49   0.0000       0.154805         4.2125

MULLIKEN ATOMIC CHARGES
-----------------------
   0 C :    0.142100
   1 H :    0.023708
   2 O :   -0.414929
   3 C :    0.294869
   4 C :   -0.264746
   5 C :   -0.020083
   6 N :   -0.111688
   7 C :   -0.011143
   8 S :    0.144335
   9 H :    0.077758
  10 C :    0.178620
  11 O :   -0.245572
  12 O :   -0.156692
  13 H :    0.193204
  14 H :    0.047258
  15 H :    0.047534
  16 H :    0.052015
  17 H :    0.023452
Sum of atomic charges:    0.0000000

LOEWDIN ATOMIC CHARGES
----------------------
   0 C :    0.062883
   1 H :    0.011026
   2 O :   -0.180458
   3 C :    0.062664
   4 C :   -0.162433
   5 C :   -0.113056
   6 N :   -0.090021
   7 C :   -0.137649
   8 S :    0.456531
   9 H :    0.027827
  10 C :    0.083750
  11 O :   -0.203589
  12 O :   -0.015372
  13 H :    0.099751
  14 H :    0.029536
  15 H :    0.029479
  16 H :    0.028232
  17 H :    0.010901

  Mayer bond orders larger than 0.100000
B(  0-C ,  1-H ) :   0.9702 B(  0-C ,  2-O ) :   0.9745 B(  0-C , 16-H ) :   0.9831
B(  0-C , 17-H ) :   0.9703 B(  2-O ,  3-C ) :   1.0183 B(  3-C ,  4-C ) :   1.0341
B(  3-C , 14-H ) :   0.9265 B(  3-C , 15-H ) :   0.9264 B(  4-C ,  5-C ) :   1.5688
B(  4-C ,  8-S ) :   1.2037 B(  5-C ,  6-N ) :   1.3335 B(  5-C , 10-C ) :   0.9442
B(  6-N ,  7-C ) :   1.7178 B(  7-C ,  8-S ) :   1.1452 B(  7-C ,  9-H ) :   0.9624
B( 10-C , 11-O ) :   2.0807 B( 10-C , 12-O ) :   1.3223 B( 12-O , 13-H ) :   0.9452

Dispersion correction           -0.005568881
FINAL SINGLE POINT ENERGY      -910.812698043708

DIPOLE MOMENT
-------------
                                X             Y             Z
Electronic contribution:      7.95490       6.29710       0.02007
Nuclear contribution   :     -8.55676      -6.45329      -0.02560
                        -----------------------------------------
Total Dipole Moment    :     -0.60186      -0.15618      -0.00553
                        -----------------------------------------
Magnitude (a.u.)       :      0.62182
Magnitude (Debye)      :      1.58054

Rotational constants in cm-1:     0.045287     0.025618     0.016464
Rotational constants in MHz :  1357.659991   768.004621   493.591854

                             ****ORCA TERMINATED NORMALLY****
TOTAL RUN TIME: 0 days 0 hours 10 minutes 28 seconds 417 msec
