                         Program Version 4.2.0 -  RELEASE  -
|  1> # ORCA input file
|  2> # SCF done        -48.376121248309          0.000562413356
|  3> ! wB97X-D3 def2-SVP Opt
|  4> * xyz 0 1
|  5>    C        0.94150        -0.60130         0.46240
|  6>    C        5.05820        -3.05390        -0.19180
|  7>    C        3.75320        -3.86260        -0.04380
|  8>    C        3.10570         0.68170         0.19040
|  9>    C        5.23150        -0.44310        -0.14590
| 10>    C        2.41870        -0.52450         0.25000
| 11>    C        4.55830        -1.64330        -0.08470
| 12>    C        4.47620         0.71290        -0.00810
| 13>    C        3.17940        -1.68120         0.10910
| 14>    C        5.67300         2.40530         1.01210
| 15>    F        4.81420         2.52290         2.04490
| 16>    F        6.66330         1.61480         1.47660
| 17>    F        6.20730         3.60720         0.81940
| 18>    O        2.67810        -2.93790         0.14260
| 19>    O        5.11970         1.97970        -0.09910
| 20>    H        0.49750         0.38960         0.46630
| 21>    H        0.72710        -1.09100         1.41120
| 22>    H        0.48340        -1.19990        -0.32280
| 23>    H        5.54430        -3.23620        -1.15080
| 24>    H        5.77240        -3.28450         0.59980
| 25>    H        3.77270        -4.52900         0.82330
| 26>    H        3.53040        -4.45630        -0.93530
| 27>    H        2.57050         1.61230         0.29580
| 28>    H        6.29800        -0.39490        -0.29420
| 29> *
| 30>
| 31>                          ****END OF INPUT****
 Total Charge           Charge          ....    0
 Multiplicity           Mult            ....    1
 Number of Electrons    NEL             ....  112
Dispersion correction           -0.008763961
FINAL SINGLE POINT ENERGY      -835.636306751722
Dispersion correction            ... done
Dispersion correction           -0.008748182
FINAL SINGLE POINT ENERGY      -835.639112479053
Dispersion correction            ... done
Dispersion correction           -0.008738988
FINAL SINGLE POINT ENERGY      -835.639674697234
Dispersion correction            ... done
FINAL SINGLE POINT ENERGY      -835.639748029783
FINAL SINGLE POINT ENERGY      -835.639762175721
FINAL SINGLE POINT ENERGY      -835.639769251666
FINAL SINGLE POINT ENERGY      -835.639775976346
FINAL SINGLE POINT ENERGY      -835.639782349451
Dispersion correction            ... done
Dispersion correction           -0.008743491
FINAL SINGLE POINT ENERGY      -835.639787549336
Dispersion correction            ... done
Dispersion correction           -0.008743293
FINAL SINGLE POINT ENERGY      -835.639789805849
Dispersion correction            ... done
                    ***********************HURRAY********************

CARTESIAN COORDINATES (ANGSTROEM)
---------------------------------
  C      0.953310   -0.608259    0.469547
  C      5.049353   -3.092328   -0.228836
  C      3.732579   -3.881071   -0.032518
  C      3.139245    0.684863    0.204271
  C      5.262712   -0.458569   -0.154397
  C      2.438488   -0.523550    0.261003
  C      4.579879   -1.665184   -0.096996
  C      4.517334    0.707402    0.004846
  C      3.202664   -1.681783    0.106666
  C      5.657915    2.466101    1.050019
  F      4.711357    2.680282    1.967999
  F      6.577385    1.678481    1.616920
  F      6.223852    3.622508    0.753358
  O      2.677043   -2.925886    0.135487
  O      5.163837    1.942156   -0.083077
  H      0.510743    0.388166    0.602232
  H      0.716723   -1.215894    1.356447
  H      0.464602   -1.095242   -0.388738
  H      5.502788   -3.283120   -1.213913
  H      5.800885   -3.349676    0.533259
  H      3.757199   -4.522270    0.861971
  H      3.484903   -4.512506   -0.898951
  H      2.609365    1.633261    0.317342
  H      6.340439   -0.401082   -0.316541

 Multiplicity           Mult            ....    1
 Number of Electrons    NEL             ....  112
 Basis Dimension        Dim             ....  255

ORBITAL ENERGIES
----------------

  NO   OCC          E(Eh)            E(eV)
   0   2.0000     -24.827587      -675.5930
   1   2.0000     -24.825545      -675.5374
   2   2.0000     -24.825157      -675.5269
   3   2.0000     -19.300098      -525.1824
   4   2.0000     -19.276257      -524.5336
   5   2.0000     -10.584275      -288.0128
   6   2.0000     -10.357801      -281.8501
   7   2.0000     -10.356681      -281.8196
   8   2.0000     -10.350748      -281.6582
   9   2.0000     -10.314243      -280.6648
  10   2.0000     -10.308525      -280.5092
  11   2.0000     -10.307281      -280.4754
  12   2.0000     -10.306067      -280.4424
  13   2.0000     -10.303646      -280.3765
  14   2.0000     -10.292760      -280.0802
  15   2.0000      -1.437532       -39.1172
  16   2.0000      -1.334732       -36.3199
  17   2.0000      -1.328890       -36.1609
  18   2.0000      -1.210180       -32.9307
  19   2.0000      -1.192371       -32.4461
  20   2.0000      -0.984272       -26.7834
  21   2.0000      -0.923832       -25.1388
  22   2.0000      -0.888175       -24.1685
  23   2.0000      -0.861871       -23.4527
  24   2.0000      -0.811798       -22.0902
  25   2.0000      -0.804665       -21.8960
  26   2.0000      -0.759993       -20.6805
  27   2.0000      -0.733325       -19.9548
  28   2.0000      -0.717139       -19.5143
  29   2.0000      -0.714011       -19.4292
  30   2.0000      -0.706836       -19.2340
  31   2.0000      -0.668850       -18.2003
  32   2.0000      -0.629837       -17.1387
  33   2.0000      -0.611069       -16.6280
  34   2.0000      -0.608665       -16.5626
  35   2.0000      -0.590298       -16.0628
  36   2.0000      -0.576434       -15.6856
  37   2.0000      -0.571716       -15.5572
  38   2.0000      -0.550841       -14.9892
  39   2.0000      -0.545904       -14.8548
  40   2.0000      -0.539526       -14.6813
  41   2.0000      -0.528746       -14.3879
  42   2.0000      -0.527801       -14.3622
  43   2.0000      -0.515552       -14.0289
  44   2.0000      -0.513850       -13.9826
  45   2.0000      -0.509106       -13.8535
  46   2.0000      -0.504909       -13.7393
  47   2.0000      -0.498287       -13.5591
  48   2.0000      -0.479790       -13.0557
  49   2.0000      -0.473764       -12.8918
  50   2.0000      -0.462649       -12.5893
  51   2.0000      -0.449228       -12.2241
  52   2.0000      -0.424361       -11.5475
  53   2.0000      -0.418894       -11.3987
  54   2.0000      -0.342186        -9.3113
  55   2.0000      -0.304031        -8.2731
  56   0.0000       0.054856         1.4927
  57   0.0000       0.075207         2.0465
  58   0.0000       0.138858         3.7785
  59   0.0000       0.159708         4.3459
  60   0.0000       0.168649         4.5892

MULLIKEN ATOMIC CHARGES
-----------------------
   0 C :    0.056301
   1 C :    0.018344
   2 C :    0.204164
   3 C :   -0.037261
   4 C :   -0.053890
   5 C :   -0.163396
   6 C :   -0.141721
   7 C :    0.139861
   8 C :    0.169936
   9 C :    0.581212
  10 F :   -0.174552
  11 F :   -0.176872
  12 F :   -0.149142
  13 O :   -0.343132
  14 O :   -0.306750
  15 H :    0.029822
  16 H :    0.056521
  17 H :    0.057080
  18 H :    0.057355
  19 H :    0.058084
  20 H :    0.047985
  21 H :    0.048376
  22 H :    0.010403
  23 H :    0.011271
Sum of atomic charges:   -0.0000000

LOEWDIN ATOMIC CHARGES
----------------------
   0 C :   -0.049510
   1 C :   -0.039848
   2 C :    0.100431
   3 C :   -0.031123
   4 C :   -0.033846
   5 C :   -0.054432
   6 C :   -0.062431
   7 C :    0.016867
   8 C :    0.049698
   9 C :    0.143447
  10 F :   -0.062116
  11 F :   -0.064075
  12 F :   -0.039227
  13 O :   -0.116740
  14 O :   -0.087128
  15 H :    0.033120
  16 H :    0.042725
  17 H :    0.042746
  18 H :    0.040354
  19 H :    0.041230
  20 H :    0.024244
  21 H :    0.025129
  22 H :    0.039813
  23 H :    0.040674

  Mayer bond orders larger than 0.100000
B(  0-C ,  5-C ) :   1.0353 B(  0-C , 15-H ) :   0.9593 B(  0-C , 16-H ) :   0.9604
B(  0-C , 17-H ) :   0.9608 B(  1-C ,  2-C ) :   1.0879 B(  1-C ,  6-C ) :   1.0166
B(  1-C , 18-H ) :   0.9302 B(  1-C , 19-H ) :   0.9300 B(  2-C , 13-O ) :   0.9329
B(  2-C , 20-H ) :   0.9599 B(  2-C , 21-H ) :   0.9608 B(  3-C ,  5-C ) :   1.3787
B(  3-C ,  7-C ) :   1.3944 B(  3-C , 22-H ) :   0.9957 B(  4-C ,  6-C ) :   1.3702
B(  4-C ,  7-C ) :   1.3924 B(  4-C , 23-H ) :   1.0071 B(  5-C ,  8-C ) :   1.4122
B(  6-C ,  8-C ) :   1.3728 B(  7-C , 14-O ) :   0.8918 B(  8-C , 13-O ) :   1.1384
B(  9-C , 10-F ) :   1.1317 B(  9-C , 11-F ) :   1.1291 B(  9-C , 12-F ) :   1.1665
B(  9-C , 14-O ) :   1.1498

Dispersion correction           -0.008742532
FINAL SINGLE POINT ENERGY      -835.639793692320

DIPOLE MOMENT
-------------
                                X             Y             Z
Electronic contribution:     13.40880      22.04763       5.67622
Nuclear contribution   :    -13.52887     -23.34845      -5.90995
                        -----------------------------------------
Total Dipole Moment    :     -0.12008      -1.30082      -0.23372
                        -----------------------------------------
Magnitude (a.u.)       :      1.32709
Magnitude (Debye)      :      3.37320

Rotational constants in cm-1:     0.042260     0.011483     0.009695
Rotational constants in MHz :  1266.929087   344.250141   290.634178

                             ****ORCA TERMINATED NORMALLY****
TOTAL RUN TIME: 0 days 0 hours 34 minutes 14 seconds 192 msec
