                         Program Version 4.2.0 -  RELEASE  -
|  1> # ORCA input file
|  2> # -44.39047160
|  3> ! wB97X-D3 def2-SVP Opt
|  4> * xyz 0 1
|  5>    C        1.78470        -2.34980        -0.79400
|  6>    C        1.87910        -2.35060         0.70580
|  7>    C        2.37150        -1.17320        -0.07750
|  8>    N        1.69340         0.09200        -0.03420
|  9>    C        2.43080         1.23480        -0.07440
| 10>    O        3.64310         1.22280        -0.15040
| 11>    C        1.62370         2.51350        -0.01910
| 12>    H        0.94080         2.56740        -0.86380
| 13>    H        1.04020         2.55500         0.89770
| 14>    H        2.30850         3.35620        -0.05230
| 15>    C        0.27610         0.09850         0.05600
| 16>    C       -0.35010         0.09020         1.29950
| 17>    C       -1.72480         0.07390         1.38430
| 18>    C       -2.50800         0.06540         0.22730
| 19>    C       -1.88250         0.07750        -1.01530
| 20>    C       -0.50020         0.09370        -1.09330
| 21>    H       -0.01770         0.10630        -2.05980
| 22>    H       -2.45700         0.07340        -1.92790
| 23>    O       -3.85200         0.04720         0.42420
| 24>    C       -4.70060         0.03990        -0.69880
| 25>    H       -5.71390         0.02580        -0.30110
| 26>    H       -4.56540         0.93740        -1.31080
| 27>    H       -4.54270        -0.85010        -1.31640
| 28>    H       -2.22460         0.06620         2.33980
| 29>    H        0.25060         0.10010         2.19700
| 30>    H        3.43910        -1.00610        -0.14470
| 31>    H        0.95900        -2.24890         1.26080
| 32>    H        2.61000        -2.98580         1.18120
| 33>    H        0.80210        -2.24730        -1.22880
| 34>    H        2.44980        -2.98450        -1.35850
| 35> *
| 36>
| 37>                          ****END OF INPUT****
 Total Charge           Charge          ....    0
 Multiplicity           Mult            ....    1
 Number of Electrons    NEL             ....  110
Dispersion correction           -0.012633358
FINAL SINGLE POINT ENERGY      -670.812575220230
Dispersion correction            ... done
Dispersion correction           -0.012524112
FINAL SINGLE POINT ENERGY      -670.815460411649
Dispersion correction            ... done
Dispersion correction           -0.012510762
FINAL SINGLE POINT ENERGY      -670.815600409184
Dispersion correction            ... done
FINAL SINGLE POINT ENERGY      -670.815641423972
Dispersion correction            ... done
Dispersion correction           -0.012509424
FINAL SINGLE POINT ENERGY      -670.815648261382
Dispersion correction            ... done
Dispersion correction           -0.012511348
FINAL SINGLE POINT ENERGY      -670.815651132511
Dispersion correction            ... done
                    ***********************HURRAY********************

CARTESIAN COORDINATES (ANGSTROEM)
---------------------------------
  C      1.866477   -2.386319   -0.801587
  C      1.944272   -2.385877    0.706768
  C      2.387223   -1.185746   -0.073066
  N      1.674478    0.072058   -0.036775
  C      2.417275    1.236083   -0.075388
  O      3.629680    1.223677   -0.144177
  C      1.635365    2.533615   -0.028385
  H      0.943733    2.615566   -0.878946
  H      1.030891    2.605795    0.886941
  H      2.357497    3.356964   -0.059832
  C      0.252250    0.078980    0.055274
  C     -0.380737    0.076972    1.305773
  C     -1.762565    0.077995    1.400804
  C     -2.550043    0.077921    0.239855
  C     -1.928621    0.077328   -1.012935
  C     -0.535729    0.076346   -1.093084
  H     -0.046422    0.079492   -2.070506
  H     -2.515592    0.078172   -1.932048
  O     -3.885196    0.079195    0.426363
  C     -4.728960    0.079660   -0.694849
  H     -5.757438    0.080499   -0.314616
  H     -4.579411    0.977916   -1.318958
  H     -4.580728   -0.818937   -1.318754
  H     -2.267184    0.079447    2.368883
  H      0.234420    0.079862    2.209352
  H      3.458210   -0.985074   -0.128971
  H      0.994262   -2.333926    1.245681
  H      2.711804   -2.985656    1.202799
  H      0.865656   -2.333916   -1.239340
  H      2.578132   -2.987192   -1.373776

 Multiplicity           Mult            ....    1
 Number of Electrons    NEL             ....  110
 Basis Dimension        Dim             ....  285

ORBITAL ENERGIES
----------------

  NO   OCC          E(Eh)            E(eV)
   0   2.0000     -19.284310      -524.7528
   1   2.0000     -19.194604      -522.3117
   2   2.0000     -14.457158      -393.3993
   3   2.0000     -10.383411      -282.5470
   4   2.0000     -10.367604      -282.1169
   5   2.0000     -10.356403      -281.8121
   6   2.0000     -10.332845      -281.1710
   7   2.0000     -10.321878      -280.8726
   8   2.0000     -10.310838      -280.5722
   9   2.0000     -10.309363      -280.5320
  10   2.0000     -10.305916      -280.4382
  11   2.0000     -10.301726      -280.3242
  12   2.0000     -10.288205      -279.9563
  13   2.0000     -10.287961      -279.9497
  14   2.0000     -10.286065      -279.8981
  15   2.0000      -1.193437       -32.4751
  16   2.0000      -1.138303       -30.9748
  17   2.0000      -1.054891       -28.7051
  18   2.0000      -0.978494       -26.6262
  19   2.0000      -0.953326       -25.9413
  20   2.0000      -0.880066       -23.9478
  21   2.0000      -0.869760       -23.6674
  22   2.0000      -0.842217       -22.9179
  23   2.0000      -0.815475       -22.1902
  24   2.0000      -0.738633       -20.0992
  25   2.0000      -0.723471       -19.6866
  26   2.0000      -0.715664       -19.4742
  27   2.0000      -0.702264       -19.1096
  28   2.0000      -0.670059       -18.2332
  29   2.0000      -0.647968       -17.6321
  30   2.0000      -0.612654       -16.6712
  31   2.0000      -0.610624       -16.6159
  32   2.0000      -0.590778       -16.0759
  33   2.0000      -0.588095       -16.0029
  34   2.0000      -0.560414       -15.2496
  35   2.0000      -0.558832       -15.2066
  36   2.0000      -0.547488       -14.8979
  37   2.0000      -0.537645       -14.6301
  38   2.0000      -0.524791       -14.2803
  39   2.0000      -0.522251       -14.2112
  40   2.0000      -0.510805       -13.8997
  41   2.0000      -0.496741       -13.5170
  42   2.0000      -0.485358       -13.2073
  43   2.0000      -0.480912       -13.0863
  44   2.0000      -0.465535       -12.6678
  45   2.0000      -0.462458       -12.5841
  46   2.0000      -0.457256       -12.4426
  47   2.0000      -0.434297       -11.8178
  48   2.0000      -0.433028       -11.7833
  49   2.0000      -0.417158       -11.3515
  50   2.0000      -0.394361       -10.7311
  51   2.0000      -0.358184        -9.7467
  52   2.0000      -0.344917        -9.3857
  53   2.0000      -0.316661        -8.6168
  54   2.0000      -0.316297        -8.6069
  55   0.0000       0.050715         1.3800
  56   0.0000       0.062437         1.6990
  57   0.0000       0.117369         3.1938
  58   0.0000       0.136044         3.7019
  59   0.0000       0.152609         4.1527

MULLIKEN ATOMIC CHARGES
-----------------------
   0 C :   -0.086830
   1 C :   -0.086648
   2 C :    0.029326
   3 N :   -0.264164
   4 C :    0.096007
   5 O :   -0.274457
   6 C :    0.015758
   7 H :    0.046021
   8 H :    0.048181
   9 H :    0.059991
  10 C :   -0.009632
  11 C :    0.022194
  12 C :   -0.060075
  13 C :    0.246663
  14 C :   -0.135114
  15 C :    0.023688
  16 H :    0.017003
  17 H :    0.009938
  18 O :   -0.327076
  19 C :    0.121570
  20 H :    0.061803
  21 H :    0.042340
  22 H :    0.042607
  23 H :    0.024362
  24 H :    0.019453
  25 H :    0.078431
  26 H :    0.059651
  27 H :    0.061532
  28 H :    0.057223
  29 H :    0.060255
Sum of atomic charges:   -0.0000000

LOEWDIN ATOMIC CHARGES
----------------------
   0 C :   -0.057773
   1 C :   -0.057769
   2 C :    0.029151
   3 N :   -0.049420
   4 C :    0.083419
   5 O :   -0.220969
   6 C :   -0.085508
   7 H :    0.042258
   8 H :    0.043178
   9 H :    0.043521
  10 C :   -0.017261
  11 C :   -0.015312
  12 C :   -0.050871
  13 C :    0.058691
  14 C :   -0.085105
  15 C :   -0.013531
  16 H :    0.038930
  17 H :    0.033919
  18 O :   -0.099709
  19 C :    0.069278
  20 H :    0.032980
  21 H :    0.018071
  22 H :    0.018183
  23 H :    0.041260
  24 H :    0.039439
  25 H :    0.037364
  26 H :    0.030707
  27 H :    0.031843
  28 H :    0.029855
  29 H :    0.031180

  Mayer bond orders larger than 0.100000
B(  0-C ,  1-C ) :   0.9939 B(  0-C ,  2-C ) :   0.9848 B(  0-C , 28-H ) :   0.9528
B(  0-C , 29-H ) :   0.9610 B(  1-C ,  2-C ) :   0.9853 B(  1-C , 26-H ) :   0.9523
B(  1-C , 27-H ) :   0.9606 B(  2-C ,  3-N ) :   0.9225 B(  2-C , 25-H ) :   0.9433
B(  3-N ,  4-C ) :   1.1077 B(  3-N , 10-C ) :   0.9474 B(  4-C ,  5-O ) :   2.0454
B(  4-C ,  6-C ) :   1.0277 B(  6-C ,  7-H ) :   0.9468 B(  6-C ,  8-H ) :   0.9463
B(  6-C ,  9-H ) :   0.9607 B( 10-C , 11-C ) :   1.3831 B( 10-C , 15-C ) :   1.4439
B( 11-C , 12-C ) :   1.3894 B( 11-C , 24-H ) :   0.9908 B( 12-C , 13-C ) :   1.3474
B( 12-C , 23-H ) :   0.9927 B( 13-C , 14-C ) :   1.3194 B( 13-C , 18-O ) :   1.1346
B( 14-C , 15-C ) :   1.3356 B( 14-C , 17-H ) :   0.9918 B( 15-C , 16-H ) :   0.9882
B( 18-O , 19-C ) :   0.9528 B( 19-C , 20-H ) :   0.9800 B( 19-C , 21-H ) :   0.9696
B( 19-C , 22-H ) :   0.9697

Dispersion correction           -0.012511493
FINAL SINGLE POINT ENERGY      -670.815652847911

DIPOLE MOMENT
-------------
                                X             Y             Z
Electronic contribution:      2.25966       2.03704       2.20166
Nuclear contribution   :     -4.15600      -2.29041      -2.57767
                        -----------------------------------------
Total Dipole Moment    :     -1.89634      -0.25337      -0.37601
                        -----------------------------------------
Magnitude (a.u.)       :      1.94979
Magnitude (Debye)      :      4.95598

Rotational constants in cm-1:     0.037051     0.011773     0.010295
Rotational constants in MHz :  1110.749872   352.951242   308.636203

                             ****ORCA TERMINATED NORMALLY****
TOTAL RUN TIME: 0 days 0 hours 34 minutes 8 seconds 285 msec
