                         Program Version 4.2.0 -  RELEASE  -
|  1> # ORCA input file
|  2> # -50.00856561
|  3> ! wB97X-D3 def2-SVP Opt
|  4> * xyz 0 1
|  5>    C       -3.43470        -1.46150        -0.98630
|  6>    C       -4.03970        -0.12430        -0.67410
|  7>    N       -3.89310         0.59080         0.35690
|  8>    C       -3.03180         0.17270         1.43920
|  9>    C       -1.57400         0.17340         1.05520
| 10>    C       -1.02570         1.27710         0.41510
| 11>    C        0.30300         1.29520         0.03870
| 12>    C        1.12580         0.20050         0.30210
| 13>    C        0.58120        -0.90620         0.94980
| 14>    C       -0.75200        -0.91530         1.31210
| 15>    H       -1.15470        -1.78600         1.80950
| 16>    H        1.20020        -1.76300         1.15480
| 17>    N        2.47780         0.22870        -0.06640
| 18>    C        3.27240        -0.85750        -0.29290
| 19>    O        2.95480        -2.01960        -0.19800
| 20>    C        4.64040        -0.34610        -0.72130
| 21>    C        4.64000         1.11340        -0.28550
| 22>    H        5.00350         1.19870         0.73930
| 23>    H        5.24760         1.75210        -0.92320
| 24>    C        3.15710         1.48150        -0.34710
| 25>    H        2.88820         1.84680        -1.34660
| 26>    H        2.88050         2.23690         0.39160
| 27>    H        4.71100        -0.44520        -1.80670
| 28>    H        5.43180        -0.94430        -0.27460
| 29>    H        0.69030         2.16450        -0.46910
| 30>    H       -1.65580         2.12780         0.20220
| 31>    H       -3.19540         0.89470         2.24740
| 32>    H       -3.31370        -0.82240         1.80650
| 33>    O       -4.84690         0.33030        -1.64770
| 34>    H       -5.20230         1.18910        -1.37670
| 35>    H       -3.65880        -2.16440        -0.18550
| 36>    H       -3.83930        -1.83030        -1.92360
| 37>    H       -2.35260        -1.37000        -1.06170
| 38> *
| 39>
| 40>                          ****END OF INPUT****
 Total Charge           Charge          ....    0
 Multiplicity           Mult            ....    1
 Number of Electrons    NEL             ....  124
Dispersion correction           -0.013784229
FINAL SINGLE POINT ENERGY      -764.234557904374
Dispersion correction            ... done
Dispersion correction           -0.013607051
FINAL SINGLE POINT ENERGY      -764.237555176652
Dispersion correction            ... done
Dispersion correction           -0.013573999
FINAL SINGLE POINT ENERGY      -764.238002227212
Dispersion correction            ... done
FINAL SINGLE POINT ENERGY      -764.238212568135
FINAL SINGLE POINT ENERGY      -764.238274821932
FINAL SINGLE POINT ENERGY      -764.238314252499
FINAL SINGLE POINT ENERGY      -764.238334641831
FINAL SINGLE POINT ENERGY      -764.238351783241
Dispersion correction            ... done
Dispersion correction           -0.013417242
FINAL SINGLE POINT ENERGY      -764.238362565387
Dispersion correction            ... done
Dispersion correction           -0.013423990
FINAL SINGLE POINT ENERGY      -764.238367382828
Dispersion correction            ... done
                    ***********************HURRAY********************

CARTESIAN COORDINATES (ANGSTROEM)
---------------------------------
  C     -3.701132   -1.324092   -1.111331
  C     -4.173507    0.024535   -0.648601
  N     -3.901055    0.624846    0.434569
  C     -3.024744   -0.006914    1.397198
  C     -1.556883    0.038625    1.015120
  C     -1.017080    1.139859    0.348175
  C      0.334457    1.193762    0.022120
  C      1.197615    0.140402    0.360100
  C      0.662905   -0.972438    1.026988
  C     -0.692395   -1.009564    1.339017
  H     -1.086282   -1.892960    1.851627
  H      1.311304   -1.808151    1.279367
  N      2.567757    0.227429    0.028910
  C      3.469701   -0.822573    0.010213
  O      3.263130   -1.961840    0.357224
  C      4.775459   -0.293355   -0.562061
  C      4.653810    1.220053   -0.435925
  H      5.041411    1.551167    0.539569
  H      5.192422    1.776583   -1.214844
  C      3.142680    1.460121   -0.496641
  H      2.797614    1.641454   -1.531478
  H      2.832140    2.321886    0.112814
  H      4.828765   -0.621751   -1.613777
  H      5.627202   -0.743063   -0.035847
  H      0.708340    2.071108   -0.507231
  H     -1.671178    1.969517    0.068719
  H     -3.153866    0.514789    2.360283
  H     -3.305853   -1.060370    1.588998
  O     -4.971674    0.630648   -1.542127
  H     -5.202123    1.483414   -1.144191
  H     -3.872763   -2.082242   -0.332966
  H     -4.223317   -1.619909   -2.028142
  H     -2.617759   -1.292878   -1.302449

 Multiplicity           Mult            ....    1
 Number of Electrons    NEL             ....  124
 Basis Dimension        Dim             ....  318

ORBITAL ENERGIES
----------------

  NO   OCC          E(Eh)            E(eV)
   0   2.0000     -19.270330      -524.3723
   1   2.0000     -19.212801      -522.8069
   2   2.0000     -14.475058      -393.8864
   3   2.0000     -14.399669      -391.8349
   4   2.0000     -10.394655      -282.8530
   5   2.0000     -10.381772      -282.5024
   6   2.0000     -10.340544      -281.3805
   7   2.0000     -10.337578      -281.2998
   8   2.0000     -10.314982      -280.6849
   9   2.0000     -10.309245      -280.5288
  10   2.0000     -10.302703      -280.3508
  11   2.0000     -10.295853      -280.1644
  12   2.0000     -10.293715      -280.1062
  13   2.0000     -10.292896      -280.0839
  14   2.0000     -10.290292      -280.0131
  15   2.0000     -10.290078      -280.0073
  16   2.0000     -10.284077      -279.8440
  17   2.0000      -1.180686       -32.1281
  18   2.0000      -1.154105       -31.4048
  19   2.0000      -1.073708       -29.2171
  20   2.0000      -1.015755       -27.6401
  21   2.0000      -0.970194       -26.4003
  22   2.0000      -0.922262       -25.0960
  23   2.0000      -0.865983       -23.5646
  24   2.0000      -0.857049       -23.3215
  25   2.0000      -0.846879       -23.0448
  26   2.0000      -0.833013       -22.6674
  27   2.0000      -0.790639       -21.5144
  28   2.0000      -0.739760       -20.1299
  29   2.0000      -0.723159       -19.6782
  30   2.0000      -0.698125       -18.9969
  31   2.0000      -0.693332       -18.8665
  32   2.0000      -0.660583       -17.9754
  33   2.0000      -0.624620       -16.9968
  34   2.0000      -0.611966       -16.6524
  35   2.0000      -0.598829       -16.2950
  36   2.0000      -0.584198       -15.8968
  37   2.0000      -0.572416       -15.5762
  38   2.0000      -0.562937       -15.3183
  39   2.0000      -0.549144       -14.9430
  40   2.0000      -0.545054       -14.8317
  41   2.0000      -0.534473       -14.5437
  42   2.0000      -0.527396       -14.3512
  43   2.0000      -0.522203       -14.2099
  44   2.0000      -0.513602       -13.9758
  45   2.0000      -0.512883       -13.9563
  46   2.0000      -0.506501       -13.7826
  47   2.0000      -0.498415       -13.5626
  48   2.0000      -0.492325       -13.3969
  49   2.0000      -0.479783       -13.0556
  50   2.0000      -0.476328       -12.9615
  51   2.0000      -0.467353       -12.7173
  52   2.0000      -0.459181       -12.4950
  53   2.0000      -0.456319       -12.4171
  54   2.0000      -0.437664       -11.9094
  55   2.0000      -0.434677       -11.8282
  56   2.0000      -0.387274       -10.5383
  57   2.0000      -0.349942        -9.5224
  58   2.0000      -0.347595        -9.4585
  59   2.0000      -0.343360        -9.3433
  60   2.0000      -0.337902        -9.1948
  61   2.0000      -0.297880        -8.1057
  62   0.0000       0.059883         1.6295
  63   0.0000       0.068224         1.8565
  64   0.0000       0.105583         2.8731
  65   0.0000       0.121828         3.3151
  66   0.0000       0.132144         3.5958

MULLIKEN ATOMIC CHARGES
-----------------------
   0 C :   -0.015029
   1 C :    0.001599
   2 N :   -0.273196
   3 C :    0.222423
   4 C :   -0.129502
   5 C :   -0.015132
   6 C :   -0.088049
   7 C :    0.183144
   8 C :   -0.053802
   9 C :   -0.035829
  10 H :    0.005774
  11 H :    0.037334
  12 N :   -0.346330
  13 C :    0.158703
  14 O :   -0.245842
  15 C :   -0.046062
  16 C :   -0.046861
  17 H :    0.051639
  18 H :    0.045567
  19 C :    0.105657
  20 H :    0.046314
  21 H :    0.053524
  22 H :    0.068695
  23 H :    0.064188
  24 H :    0.005221
  25 H :    0.014311
  26 H :    0.048064
  27 H :    0.004641
  28 O :   -0.202401
  29 H :    0.182538
  30 H :    0.059467
  31 H :    0.058889
  32 H :    0.080343
Sum of atomic charges:   -0.0000000

LOEWDIN ATOMIC CHARGES
----------------------
   0 C :   -0.079894
   1 C :    0.068169
   2 N :   -0.196082
   3 C :    0.021868
   4 C :   -0.054037
   5 C :   -0.023046
   6 C :   -0.059722
   7 C :    0.028656
   8 C :   -0.038573
   9 C :   -0.028664
  10 H :    0.030253
  11 H :    0.038646
  12 N :   -0.046720
  13 C :    0.086602
  14 O :   -0.197041
  15 C :   -0.060317
  16 C :   -0.039715
  17 H :    0.034121
  18 H :    0.033197
  19 C :    0.043284
  20 H :    0.020740
  21 H :    0.028157
  22 H :    0.049042
  23 H :    0.044545
  24 H :    0.029795
  25 H :    0.033022
  26 H :    0.034546
  27 H :    0.014495
  28 O :   -0.049465
  29 H :    0.090225
  30 H :    0.045245
  31 H :    0.043614
  32 H :    0.055054

  Mayer bond orders larger than 0.100000
B(  0-C ,  1-C ) :   1.0361 B(  0-C , 30-H ) :   0.9570 B(  0-C , 31-H ) :   0.9531
B(  0-C , 32-H ) :   0.9515 B(  1-C ,  2-N ) :   1.8568 B(  1-C , 28-O ) :   1.2246
B(  2-N ,  3-C ) :   1.0223 B(  3-C ,  4-C ) :   1.0024 B(  3-C , 26-H ) :   0.9315
B(  3-C , 27-H ) :   0.9390 B(  4-C ,  5-C ) :   1.4018 B(  4-C ,  9-C ) :   1.3867
B(  5-C ,  6-C ) :   1.3898 B(  5-C , 25-H ) :   0.9879 B(  6-C ,  7-C ) :   1.3545
B(  6-C , 24-H ) :   0.9891 B(  7-C ,  8-C ) :   1.3911 B(  7-C , 12-N ) :   0.9847
B(  8-C ,  9-C ) :   1.3891 B(  8-C , 11-H ) :   0.9814 B(  9-C , 10-H ) :   0.9893
B( 12-N , 13-C ) :   1.1018 B( 12-N , 19-C ) :   0.9475 B( 13-C , 14-O ) :   2.0752
B( 13-C , 15-C ) :   0.9754 B( 15-C , 16-C ) :   1.0713 B( 15-C , 22-H ) :   0.9306
B( 15-C , 23-H ) :   0.9461 B( 16-C , 17-H ) :   0.9528 B( 16-C , 18-H ) :   0.9520
B( 16-C , 19-C ) :   1.0498 B( 19-C , 20-H ) :   0.9501 B( 19-C , 21-H ) :   0.9545
B( 28-O , 29-H ) :   0.9495

Dispersion correction           -0.013427566
FINAL SINGLE POINT ENERGY      -764.238368144570

DIPOLE MOMENT
-------------
                                X             Y             Z
Electronic contribution:     -2.04143      -0.98520       2.14275
Nuclear contribution   :      2.57889       1.90569      -2.63635
                        -----------------------------------------
Total Dipole Moment    :      0.53746       0.92049      -0.49359
                        -----------------------------------------
Magnitude (a.u.)       :      1.17465
Magnitude (Debye)      :      2.98571

Rotational constants in cm-1:     0.040421     0.006504     0.006217
Rotational constants in MHz :  1211.776449   194.983875   186.394108

                             ****ORCA TERMINATED NORMALLY****
TOTAL RUN TIME: 0 days 1 hours 11 minutes 41 seconds 48 msec
