                         Program Version 4.2.0 -  RELEASE  -
|  1> # ORCA input file
|  2> # -41.25998510
|  3> ! wB97X-D3 def2-SVP Opt
|  4> * xyz 0 1
|  5>    C       -3.82700        -0.65010         0.27530
|  6>    C       -3.26950         0.47120         0.86590
|  7>    C       -1.94010         0.78890         0.66250
|  8>    C       -1.14330        -0.01680        -0.14920
|  9>    C       -1.70850        -1.14400        -0.74400
| 10>    C       -3.03910        -1.45360        -0.52930
| 11>    H       -3.46060        -2.33040        -0.99890
| 12>    H       -1.11970        -1.78180        -1.38420
| 13>    N        0.21060         0.28230        -0.35910
| 14>    C        0.80340         1.49860        -0.19340
| 15>    O        0.27570         2.52520         0.16410
| 16>    C        2.27290         1.35200        -0.56780
| 17>    C        2.51820        -0.15170        -0.54260
| 18>    C        2.97950        -0.61680         0.84680
| 19>    O        3.10400        -2.01420         0.93300
| 20>    H        3.79550        -2.30720         0.32890
| 21>    H        3.92720        -0.12340         1.10460
| 22>    H        2.23130        -0.34170         1.59410
| 23>    H        3.25390        -0.46920        -1.28710
| 24>    C        1.13120        -0.72350        -0.85710
| 25>    H        0.99950        -0.86640        -1.93680
| 26>    H        0.97380        -1.67630        -0.34500
| 27>    H        2.41250         1.76950        -1.56690
| 28>    H        2.90050         1.91130         0.12420
| 29>    H       -1.51820         1.66540         1.12350
| 30>    H       -3.87310         1.10610         1.49730
| 31>    H       -4.86540        -0.89530         0.43950
| 32> *
| 33>
| 34>                          ****END OF INPUT****
 Total Charge           Charge          ....    0
 Multiplicity           Mult            ....    1
 Number of Electrons    NEL             ....  102
Dispersion correction           -0.010702596
FINAL SINGLE POINT ENERGY      -631.587405763903
Dispersion correction            ... done
Dispersion correction           -0.010669759
FINAL SINGLE POINT ENERGY      -631.589483970428
Dispersion correction            ... done
Dispersion correction           -0.010644211
FINAL SINGLE POINT ENERGY      -631.589696695073
Dispersion correction            ... done
FINAL SINGLE POINT ENERGY      -631.589790025753
FINAL SINGLE POINT ENERGY      -631.589814413398
Dispersion correction            ... done
Dispersion correction           -0.010610558
FINAL SINGLE POINT ENERGY      -631.589826535429
Dispersion correction            ... done
Dispersion correction           -0.010607202
FINAL SINGLE POINT ENERGY      -631.589831304999
Dispersion correction            ... done
                    ***********************HURRAY********************

CARTESIAN COORDINATES (ANGSTROEM)
---------------------------------
  C     -3.878409   -0.647136    0.232688
  C     -3.355851    0.534771    0.754488
  C     -2.013505    0.863228    0.592873
  C     -1.160232   -0.004537   -0.108363
  C     -1.689147   -1.190977   -0.639063
  C     -3.034872   -1.505322   -0.465941
  H     -3.422735   -2.436856   -0.885889
  H     -1.054477   -1.880920   -1.196077
  N      0.212272    0.278661   -0.281244
  C      0.825898    1.501121   -0.078210
  O      0.315717    2.512576    0.342783
  C      2.278389    1.361093   -0.508606
  C      2.520604   -0.144444   -0.551783
  C      3.053540   -0.667893    0.785407
  O      3.151797   -2.066415    0.826486
  H      3.843045   -2.342873    0.217331
  H      4.022195   -0.178978    1.006363
  H      2.360317   -0.380656    1.593163
  H      3.225669   -0.429822   -1.349538
  C      1.124763   -0.709134   -0.844925
  H      0.950011   -0.831360   -1.929297
  H      0.995205   -1.691427   -0.366312
  H      2.379440    1.829688   -1.500932
  H      2.928775    1.918411    0.181016
  H     -1.616661    1.792068    0.995495
  H     -4.003332    1.221346    1.306191
  H     -4.933216   -0.896110    0.370196

 Multiplicity           Mult            ....    1
 Number of Electrons    NEL             ....  102
 Basis Dimension        Dim             ....  261

ORBITAL ENERGIES
----------------

  NO   OCC          E(Eh)            E(eV)
   0   2.0000     -19.251408      -523.8574
   1   2.0000     -19.213921      -522.8374
   2   2.0000     -14.475302      -393.8930
   3   2.0000     -10.396525      -282.9038
   4   2.0000     -10.346206      -281.5346
   5   2.0000     -10.338075      -281.3133
   6   2.0000     -10.336527      -281.2712
   7   2.0000     -10.314299      -280.6663
   8   2.0000     -10.306281      -280.4482
   9   2.0000     -10.293175      -280.0915
  10   2.0000     -10.292503      -280.0732
  11   2.0000     -10.289830      -280.0005
  12   2.0000     -10.286142      -279.9002
  13   2.0000     -10.282595      -279.8036
  14   2.0000      -1.155446       -31.4413
  15   2.0000      -1.141762       -31.0689
  16   2.0000      -1.074452       -29.2373
  17   2.0000      -0.971582       -26.4381
  18   2.0000      -0.929824       -25.3018
  19   2.0000      -0.857098       -23.3228
  20   2.0000      -0.851300       -23.1651
  21   2.0000      -0.834668       -22.7125
  22   2.0000      -0.796912       -21.6851
  23   2.0000      -0.736364       -20.0375
  24   2.0000      -0.725333       -19.7373
  25   2.0000      -0.691378       -18.8134
  26   2.0000      -0.662909       -18.0387
  27   2.0000      -0.629949       -17.1418
  28   2.0000      -0.615235       -16.7414
  29   2.0000      -0.607491       -16.5307
  30   2.0000      -0.591732       -16.1018
  31   2.0000      -0.572516       -15.5790
  32   2.0000      -0.555802       -15.1241
  33   2.0000      -0.543305       -14.7841
  34   2.0000      -0.536675       -14.6037
  35   2.0000      -0.526581       -14.3290
  36   2.0000      -0.523706       -14.2508
  37   2.0000      -0.514321       -13.9954
  38   2.0000      -0.508937       -13.8489
  39   2.0000      -0.486386       -13.2352
  40   2.0000      -0.475696       -12.9444
  41   2.0000      -0.470973       -12.8158
  42   2.0000      -0.457696       -12.4545
  43   2.0000      -0.450226       -12.2513
  44   2.0000      -0.436204       -11.8697
  45   2.0000      -0.423655       -11.5282
  46   2.0000      -0.391676       -10.6580
  47   2.0000      -0.381523       -10.3818
  48   2.0000      -0.348956        -9.4956
  49   2.0000      -0.338463        -9.2101
  50   2.0000      -0.302599        -8.2341
  51   0.0000       0.060401         1.6436
  52   0.0000       0.071500         1.9456
  53   0.0000       0.121566         3.3080
  54   0.0000       0.123759         3.3677
  55   0.0000       0.146650         3.9906

MULLIKEN ATOMIC CHARGES
-----------------------
   0 C :   -0.010956
   1 C :   -0.017897
   2 C :   -0.052829
   3 C :    0.172971
   4 C :   -0.085336
   5 C :   -0.014999
   6 H :    0.017448
   7 H :    0.007478
   8 N :   -0.342362
   9 C :    0.155102
  10 O :   -0.242205
  11 C :    0.006375
  12 C :   -0.233630
  13 C :    0.235274
  14 O :   -0.324015
  15 H :    0.172326
  16 H :    0.023950
  17 H :    0.033904
  18 H :    0.025039
  19 C :    0.165173
  20 H :    0.045784
  21 H :    0.058506
  22 H :    0.071326
  23 H :    0.056392
  24 H :    0.037246
  25 H :    0.022050
  26 H :    0.017886
Sum of atomic charges:    0.0000000

LOEWDIN ATOMIC CHARGES
----------------------
   0 C :   -0.047088
   1 C :   -0.021333
   2 C :   -0.040140
   3 C :    0.034061
   4 C :   -0.061327
   5 C :   -0.024745
   6 H :    0.032268
   7 H :    0.029511
   8 N :   -0.042424
   9 C :    0.085451
  10 O :   -0.195264
  11 C :   -0.052119
  12 C :   -0.066405
  13 C :    0.067584
  14 O :   -0.131127
  15 H :    0.076246
  16 H :    0.011445
  17 H :    0.026831
  18 H :    0.025045
  19 C :    0.048167
  20 H :    0.021203
  21 H :    0.028378
  22 H :    0.051581
  23 H :    0.042043
  24 H :    0.037309
  25 H :    0.033599
  26 H :    0.031249

  Mayer bond orders larger than 0.100000
B(  0-C ,  1-C ) :   1.3824 B(  0-C ,  5-C ) :   1.4010 B(  0-C , 26-H ) :   0.9923
B(  1-C ,  2-C ) :   1.3967 B(  1-C , 25-H ) :   0.9858 B(  2-C ,  3-C ) :   1.3925
B(  2-C , 24-H ) :   0.9817 B(  3-C ,  4-C ) :   1.3697 B(  3-C ,  8-N ) :   0.9861
B(  4-C ,  5-C ) :   1.3942 B(  4-C ,  7-H ) :   0.9859 B(  5-C ,  6-H ) :   0.9854
B(  8-N ,  9-C ) :   1.1011 B(  8-N , 19-C ) :   0.9406 B(  9-C , 10-O ) :   2.0796
B(  9-C , 11-C ) :   0.9716 B( 11-C , 12-C ) :   1.0381 B( 11-C , 22-H ) :   0.9234
B( 11-C , 23-H ) :   0.9456 B( 12-C , 13-C ) :   1.0044 B( 12-C , 18-H ) :   0.9270
B( 12-C , 19-C ) :   1.0021 B( 13-C , 14-O ) :   1.0201 B( 13-C , 16-H ) :   0.9560
B( 13-C , 17-H ) :   0.9503 B( 14-O , 15-H ) :   0.9827 B( 19-C , 20-H ) :   0.9484
B( 19-C , 21-H ) :   0.9442

Dispersion correction           -0.010605116
FINAL SINGLE POINT ENERGY      -631.589832077963

DIPOLE MOMENT
-------------
                                X             Y             Z
Electronic contribution:     -4.23810       3.14346       0.80146
Nuclear contribution   :      5.36531      -3.99352      -1.65156
                        -----------------------------------------
Total Dipole Moment    :      1.12722      -0.85006      -0.85010
                        -----------------------------------------
Magnitude (a.u.)       :      1.64800
Magnitude (Debye)      :      4.18887

Rotational constants in cm-1:     0.042418     0.014619     0.011991
Rotational constants in MHz :  1271.668946   438.277088   359.476925

                             ****ORCA TERMINATED NORMALLY****
TOTAL RUN TIME: 0 days 0 hours 31 minutes 46 seconds 836 msec
