                         Program Version 4.2.0 -  RELEASE  -
|  1> # ORCA input file
|  2> # -47.11556963
|  3> ! wB97X-D3 def2-SVP Opt
|  4> * xyz 0 1
|  5>    C        4.21410        -1.28550        -0.34050
|  6>    C        3.83420        -0.15530        -1.04410
|  7>    C        2.61080         0.44350        -0.81010
|  8>    C        1.74590        -0.08290         0.14750
|  9>    C        2.13240        -1.21910         0.85660
| 10>    C        3.35720        -1.81200         0.60960
| 11>    H        3.64140        -2.69110         1.16900
| 12>    H        1.48820        -1.64210         1.61130
| 13>    N        0.49350         0.50290         0.39100
| 14>    C        0.13830         1.79220         0.11700
| 15>    O        0.82130         2.63930        -0.40740
| 16>    C       -1.29150         1.98970         0.60420
| 17>    H       -1.86190         2.59890        -0.09460
| 18>    H       -1.25940         2.50850         1.56330
| 19>    C       -1.83690         0.57370         0.75510
| 20>    N       -2.46850         0.14810        -0.47080
| 21>    C       -3.42100        -0.83100        -0.53390
| 22>    N       -3.91130        -1.36690        -1.56800
| 23>    H       -3.53110        -1.04260        -2.44800
| 24>    O       -3.88800        -1.20860         0.67350
| 25>    H       -4.59530        -1.84690         0.50840
| 26>    H       -1.96290         0.33440        -1.32370
| 27>    H       -2.57730         0.47270         1.54960
| 28>    C       -0.56100        -0.23300         1.06450
| 29>    H       -0.62750        -1.25270         0.67750
| 30>    H       -0.38520        -0.27050         2.14580
| 31>    H        2.32820         1.32540        -1.35910
| 32>    H        4.49370         0.26550        -1.78830
| 33>    H        5.16940        -1.75110        -0.52920
| 34> *
| 35>
| 36>                          ****END OF INPUT****
 Total Charge           Charge          ....    0
 Multiplicity           Mult            ....    1
 Number of Electrons    NEL             ....  116
Dispersion correction           -0.011726340
FINAL SINGLE POINT ENERGY      -740.990713953128
Dispersion correction            ... done
Dispersion correction           -0.011714439
FINAL SINGLE POINT ENERGY      -740.993325323978
Dispersion correction            ... done
Dispersion correction           -0.011715915
FINAL SINGLE POINT ENERGY      -740.993695480489
Dispersion correction            ... done
FINAL SINGLE POINT ENERGY      -740.993949224804
FINAL SINGLE POINT ENERGY      -740.994089241549
FINAL SINGLE POINT ENERGY      -740.994229376865
FINAL SINGLE POINT ENERGY      -740.994290120406
FINAL SINGLE POINT ENERGY      -740.994318035288
FINAL SINGLE POINT ENERGY      -740.994329466165
Dispersion correction            ... done
Dispersion correction           -0.011866846
FINAL SINGLE POINT ENERGY      -740.994337330252
Dispersion correction            ... done
Dispersion correction           -0.011868123
FINAL SINGLE POINT ENERGY      -740.994340356209
Dispersion correction            ... done
                    ***********************HURRAY********************

CARTESIAN COORDINATES (ANGSTROEM)
---------------------------------
  C      4.152349   -1.366974   -0.316726
  C      3.842671   -0.182151   -0.982140
  C      2.626151    0.461982   -0.779169
  C      1.687674   -0.083194    0.111608
  C      2.001635   -1.273261    0.784605
  C      3.222957   -1.906309    0.567354
  H      3.445474   -2.832577    1.102900
  H      1.296970   -1.714538    1.490767
  N      0.434828    0.529069    0.339813
  C      0.087796    1.827311    0.013008
  O      0.752810    2.632171   -0.595253
  C     -1.300522    2.076392    0.586618
  H     -1.893296    2.729880   -0.066857
  H     -1.176913    2.591831    1.552444
  C     -1.878563    0.680902    0.780785
  N     -2.549037    0.256576   -0.433576
  C     -3.261745   -0.913866   -0.529983
  N     -3.738843   -1.480117   -1.562263
  H     -3.533745   -0.969460   -2.418653
  O     -3.454974   -1.467224    0.683281
  H     -3.992259   -2.253600    0.518158
  H     -2.204107    0.628480   -1.309086
  H     -2.595296    0.620591    1.609301
  C     -0.617620   -0.143050    1.092826
  H     -0.735383   -1.187171    0.770998
  H     -0.398386   -0.141840    2.176241
  H      2.397806    1.391352   -1.295597
  H      4.560884    0.256098   -1.679971
  H      5.110483   -1.863803   -0.485233

 Multiplicity           Mult            ....    1
 Number of Electrons    NEL             ....  116
 Basis Dimension        Dim             ....  289

ORBITAL ENERGIES
----------------

  NO   OCC          E(Eh)            E(eV)
   0   2.0000     -19.282703      -524.7090
   1   2.0000     -19.222143      -523.0611
   2   2.0000     -14.482653      -394.0930
   3   2.0000     -14.463772      -393.5793
   4   2.0000     -14.387989      -391.5171
   5   2.0000     -10.413728      -283.3719
   6   2.0000     -10.404131      -283.1108
   7   2.0000     -10.354200      -281.7521
   8   2.0000     -10.344222      -281.4806
   9   2.0000     -10.342760      -281.4408
  10   2.0000     -10.314752      -280.6787
  11   2.0000     -10.298743      -280.2430
  12   2.0000     -10.298278      -280.2304
  13   2.0000     -10.295335      -280.1503
  14   2.0000     -10.291517      -280.0464
  15   2.0000     -10.288761      -279.9714
  16   2.0000      -1.200465       -32.6663
  17   2.0000      -1.163676       -31.6652
  18   2.0000      -1.087958       -29.6048
  19   2.0000      -1.054847       -28.7038
  20   2.0000      -0.985211       -26.8090
  21   2.0000      -0.967905       -26.3380
  22   2.0000      -0.914359       -24.8810
  23   2.0000      -0.862138       -23.4600
  24   2.0000      -0.848198       -23.0806
  25   2.0000      -0.839365       -22.8403
  26   2.0000      -0.758764       -20.6470
  27   2.0000      -0.745265       -20.2797
  28   2.0000      -0.742143       -20.1947
  29   2.0000      -0.703622       -19.1465
  30   2.0000      -0.668401       -18.1881
  31   2.0000      -0.653090       -17.7715
  32   2.0000      -0.632674       -17.2159
  33   2.0000      -0.619343       -16.8532
  34   2.0000      -0.597934       -16.2706
  35   2.0000      -0.594779       -16.1848
  36   2.0000      -0.582917       -15.8620
  37   2.0000      -0.571952       -15.5636
  38   2.0000      -0.559716       -15.2307
  39   2.0000      -0.549388       -14.9496
  40   2.0000      -0.532012       -14.4768
  41   2.0000      -0.529753       -14.4153
  42   2.0000      -0.521302       -14.1854
  43   2.0000      -0.516713       -14.0605
  44   2.0000      -0.512767       -13.9531
  45   2.0000      -0.499742       -13.5987
  46   2.0000      -0.485110       -13.2005
  47   2.0000      -0.477011       -12.9801
  48   2.0000      -0.466745       -12.7008
  49   2.0000      -0.456851       -12.4315
  50   2.0000      -0.441930       -12.0255
  51   2.0000      -0.403514       -10.9802
  52   2.0000      -0.398039       -10.8312
  53   2.0000      -0.372249       -10.1294
  54   2.0000      -0.356866        -9.7108
  55   2.0000      -0.343865        -9.3571
  56   2.0000      -0.330799        -9.0015
  57   2.0000      -0.309286        -8.4161
  58   0.0000       0.053348         1.4517
  59   0.0000       0.065944         1.7944
  60   0.0000       0.111191         3.0256
  61   0.0000       0.126284         3.4364
  62   0.0000       0.138600         3.7715

MULLIKEN ATOMIC CHARGES
-----------------------
   0 C :   -0.013095
   1 C :   -0.017816
   2 C :   -0.053098
   3 C :    0.168963
   4 C :   -0.087211
   5 C :   -0.014436
   6 H :    0.021819
   7 H :    0.012502
   8 N :   -0.345874
   9 C :    0.146937
  10 O :   -0.235644
  11 C :    0.001037
  12 H :    0.064754
  13 H :    0.079750
  14 C :   -0.039979
  15 N :   -0.222219
  16 C :    0.090635
  17 N :   -0.203277
  18 H :    0.100170
  19 O :   -0.223040
  20 H :    0.199708
  21 H :    0.139360
  22 H :    0.054424
  23 C :    0.181904
  24 H :    0.058255
  25 H :    0.050472
  26 H :    0.039014
  27 H :    0.025454
  28 H :    0.020530
Sum of atomic charges:    0.0000000

LOEWDIN ATOMIC CHARGES
----------------------
   0 C :   -0.045471
   1 C :   -0.020374
   2 C :   -0.040909
   3 C :    0.032095
   4 C :   -0.061483
   5 C :   -0.023650
   6 H :    0.034066
   7 H :    0.030984
   8 N :   -0.044623
   9 C :    0.077034
  10 O :   -0.192420
  11 C :   -0.055436
  12 H :    0.043984
  13 H :    0.057599
  14 C :    0.027492
  15 N :   -0.055168
  16 C :    0.072263
  17 N :   -0.247237
  18 H :    0.053372
  19 O :   -0.060119
  20 H :    0.101347
  21 H :    0.080374
  22 H :    0.033585
  23 C :    0.040467
  24 H :    0.030922
  25 H :    0.025596
  26 H :    0.038184
  27 H :    0.035113
  28 H :    0.032413

  Mayer bond orders larger than 0.100000
B(  0-C ,  1-C ) :   1.3839 B(  0-C ,  5-C ) :   1.4025 B(  0-C , 28-H ) :   0.9914
B(  1-C ,  2-C ) :   1.3968 B(  1-C , 27-H ) :   0.9855 B(  2-C ,  3-C ) :   1.3939
B(  2-C , 26-H ) :   0.9806 B(  3-C ,  4-C ) :   1.3717 B(  3-C ,  8-N ) :   0.9804
B(  4-C ,  5-C ) :   1.3955 B(  4-C ,  7-H ) :   0.9855 B(  5-C ,  6-H ) :   0.9842
B(  8-N ,  9-C ) :   1.1008 B(  8-N , 23-C ) :   0.9267 B(  9-C , 10-O ) :   2.0847
B(  9-C , 11-C ) :   0.9633 B( 11-C , 12-H ) :   0.9467 B( 11-C , 13-H ) :   0.9263
B( 11-C , 14-C ) :   1.0494 B( 14-C , 15-N ) :   0.9759 B( 14-C , 22-H ) :   0.9353
B( 14-C , 23-C ) :   0.9934 B( 15-N , 16-C ) :   1.1253 B( 15-N , 21-H ) :   0.9339
B( 16-C , 17-N ) :   1.9455 B( 16-C , 19-O ) :   1.1650 B( 17-N , 18-H ) :   0.9319
B( 19-O , 20-H ) :   0.9484 B( 23-C , 24-H ) :   0.9462 B( 23-C , 25-H ) :   0.9482

Dispersion correction           -0.011868361
FINAL SINGLE POINT ENERGY      -740.994342143027

DIPOLE MOMENT
-------------
                                X             Y             Z
Electronic contribution:     -0.31824       2.07170      -1.29753
Nuclear contribution   :      0.08435      -2.35328       2.05087
                        -----------------------------------------
Total Dipole Moment    :     -0.23389      -0.28158       0.75334
                        -----------------------------------------
Magnitude (a.u.)       :      0.83756
Magnitude (Debye)      :      2.12891

Rotational constants in cm-1:     0.030381     0.010468     0.008927
Rotational constants in MHz :   910.802343   313.821275   267.630790

                             ****ORCA TERMINATED NORMALLY****
TOTAL RUN TIME: 0 days 0 hours 59 minutes 52 seconds 341 msec
