                         Program Version 4.2.0 -  RELEASE  -
|  1> # ORCA input file
|  2> # -42.48089389
|  3> ! wB97X-D3 def2-SVP Opt
|  4> * xyz 0 1
|  5>    C       -2.34880        -2.88170        -1.31420
|  6>    C       -1.73950        -1.65580        -0.72520
|  7>    C       -1.82220        -1.31800         0.55060
|  8>    C       -1.23980        -0.06880         1.16200
|  9>    N       -0.29250         0.60910         0.29040
| 10>    C       -0.87400         1.61530        -0.42620
| 11>    O       -0.35690         2.28170        -1.29180
| 12>    C       -2.31560         1.74380         0.04410
| 13>    C       -2.33660         0.99140         1.36650
| 14>    H       -3.30150         0.53870         1.58670
| 15>    H       -2.06550         1.65730         2.18690
| 16>    H       -2.59950         2.79140         0.12310
| 17>    H       -2.95950         1.27000        -0.69940
| 18>    C        1.03790         0.18060         0.18360
| 19>    C        1.40170        -1.09660         0.60820
| 20>    C        2.71920        -1.50910         0.52980
| 21>    C        3.69280        -0.66400         0.02790
| 22>    C        3.33480         0.60410        -0.39700
| 23>    C        2.02270         1.03000        -0.31860
| 24>    H        1.75550         2.01730        -0.65490
| 25>    H        4.08480         1.27430        -0.79030
| 26>    H        4.71980        -0.99140        -0.03320
| 27>    H        2.98240        -2.50290         0.86190
| 28>    H        0.65730        -1.78010         0.98510
| 29>    H       -0.75000        -0.31970         2.11040
| 30>    H       -2.36890        -1.93890         1.24870
| 31>    H       -1.18990        -1.03260        -1.41910
| 32>    H       -2.88650        -3.45440        -0.56270
| 33>    H       -3.03840        -2.61010        -2.11270
| 34>    H       -1.57390        -3.51070        -1.75120
| 35> *
| 36>
| 37>                          ****END OF INPUT****
 Total Charge           Charge          ....    0
 Multiplicity           Mult            ....    1
 Number of Electrons    NEL             ....  108
Dispersion correction           -0.012798044
FINAL SINGLE POINT ENERGY      -633.772437718664
Dispersion correction            ... done
Dispersion correction           -0.012690655
FINAL SINGLE POINT ENERGY      -633.775533710908
Dispersion correction            ... done
Dispersion correction           -0.012691256
FINAL SINGLE POINT ENERGY      -633.775834191811
Dispersion correction            ... done
FINAL SINGLE POINT ENERGY      -633.776013968317
FINAL SINGLE POINT ENERGY      -633.776071950368
FINAL SINGLE POINT ENERGY      -633.776093291019
Dispersion correction            ... done
Dispersion correction           -0.012655698
FINAL SINGLE POINT ENERGY      -633.776103970047
Dispersion correction            ... done
Dispersion correction           -0.012654561
FINAL SINGLE POINT ENERGY      -633.776108334312
Dispersion correction            ... done
                    ***********************HURRAY********************

CARTESIAN COORDINATES (ANGSTROEM)
---------------------------------
  C     -2.263833   -2.909165   -1.392710
  C     -1.664114   -1.693032   -0.757762
  C     -1.860073   -1.313313    0.505305
  C     -1.283853   -0.076855    1.158930
  N     -0.314186    0.637195    0.327509
  C     -0.888664    1.720107   -0.321199
  O     -0.352854    2.459959   -1.112504
  C     -2.337194    1.808451    0.129682
  C     -2.368030    0.989208    1.411361
  H     -3.345092    0.537402    1.630797
  H     -2.080405    1.613117    2.271603
  H     -2.631386    2.860510    0.235429
  H     -2.962625    1.363306   -0.661764
  C      1.023022    0.195754    0.192958
  C      1.408142   -1.037079    0.743855
  C      2.724859   -1.478111    0.643438
  C      3.683835   -0.708714   -0.009231
  C      3.303201    0.512598   -0.560484
  C      1.991914    0.970249   -0.466387
  H      1.704330    1.921113   -0.907970
  H      4.040153    1.131838   -1.078729
  H      4.715572   -1.058523   -0.090500
  H      2.996432   -2.443414    1.078249
  H      0.676041   -1.676713    1.237083
  H     -0.804545   -0.364027    2.109499
  H     -2.507325   -1.915496    1.156729
  H     -1.003249   -1.085350   -1.389564
  H     -2.908900   -3.459991   -0.692512
  H     -2.865502   -2.637449   -2.274868
  H     -1.476270   -3.593373   -1.746842

 Multiplicity           Mult            ....    1
 Number of Electrons    NEL             ....  108
 Basis Dimension        Dim             ....  285

ORBITAL ENERGIES
----------------

  NO   OCC          E(Eh)            E(eV)
   0   2.0000     -19.212700      -522.8042
   1   2.0000     -14.473647      -393.8480
   2   2.0000     -10.394253      -282.8420
   3   2.0000     -10.346206      -281.5346
   4   2.0000     -10.338067      -281.3131
   5   2.0000     -10.306835      -280.4632
   6   2.0000     -10.301022      -280.3051
   7   2.0000     -10.299574      -280.2657
   8   2.0000     -10.297500      -280.2092
   9   2.0000     -10.293483      -280.0999
  10   2.0000     -10.292222      -280.0656
  11   2.0000     -10.291150      -280.0364
  12   2.0000     -10.289006      -279.9781
  13   2.0000     -10.285554      -279.8842
  14   2.0000     -10.281613      -279.7769
  15   2.0000      -1.153683       -31.3933
  16   2.0000      -1.074801       -29.2468
  17   2.0000      -0.969989       -26.3947
  18   2.0000      -0.924822       -25.1657
  19   2.0000      -0.908577       -24.7236
  20   2.0000      -0.856475       -23.3059
  21   2.0000      -0.844701       -22.9855
  22   2.0000      -0.841022       -22.8854
  23   2.0000      -0.783679       -21.3250
  24   2.0000      -0.734826       -19.9956
  25   2.0000      -0.732927       -19.9440
  26   2.0000      -0.695186       -18.9170
  27   2.0000      -0.669270       -18.2118
  28   2.0000      -0.657585       -17.8938
  29   2.0000      -0.617212       -16.7952
  30   2.0000      -0.606795       -16.5117
  31   2.0000      -0.589752       -16.0480
  32   2.0000      -0.565812       -15.3965
  33   2.0000      -0.555044       -15.1035
  34   2.0000      -0.548242       -14.9184
  35   2.0000      -0.536704       -14.6045
  36   2.0000      -0.520765       -14.1707
  37   2.0000      -0.519812       -14.1448
  38   2.0000      -0.515380       -14.0242
  39   2.0000      -0.511855       -13.9283
  40   2.0000      -0.504795       -13.7362
  41   2.0000      -0.496284       -13.5046
  42   2.0000      -0.488567       -13.2946
  43   2.0000      -0.468867       -12.7585
  44   2.0000      -0.465366       -12.6633
  45   2.0000      -0.454218       -12.3599
  46   2.0000      -0.448825       -12.2131
  47   2.0000      -0.434893       -11.8340
  48   2.0000      -0.432256       -11.7623
  49   2.0000      -0.393518       -10.7082
  50   2.0000      -0.351644        -9.5687
  51   2.0000      -0.345894        -9.4123
  52   2.0000      -0.335408        -9.1269
  53   2.0000      -0.301629        -8.2077
  54   0.0000       0.061274         1.6674
  55   0.0000       0.072367         1.9692
  56   0.0000       0.086478         2.3532
  57   0.0000       0.121496         3.3061
  58   0.0000       0.142034         3.8649

MULLIKEN ATOMIC CHARGES
-----------------------
   0 C :   -0.001414
   1 C :   -0.102768
   2 C :   -0.092057
   3 C :    0.064391
   4 N :   -0.317330
   5 C :    0.154831
   6 O :   -0.242467
   7 C :   -0.023925
   8 C :    0.002041
   9 H :    0.038549
  10 H :    0.049671
  11 H :    0.064623
  12 H :    0.066732
  13 C :    0.155781
  14 C :   -0.062346
  15 C :   -0.020376
  16 C :   -0.011393
  17 C :   -0.017841
  18 C :   -0.055432
  19 H :    0.037896
  20 H :    0.022049
  21 H :    0.016747
  22 H :    0.016331
  23 H :    0.007375
  24 H :    0.046803
  25 H :    0.019745
  26 H :    0.046065
  27 H :    0.033621
  28 H :    0.050564
  29 H :    0.053535
Sum of atomic charges:   -0.0000000

LOEWDIN ATOMIC CHARGES
----------------------
   0 C :   -0.063474
   1 C :   -0.031925
   2 C :   -0.067494
   3 C :    0.035496
   4 N :   -0.035978
   5 C :    0.088832
   6 O :   -0.194265
   7 C :   -0.058649
   8 C :   -0.026915
   9 H :    0.031126
  10 H :    0.033525
  11 H :    0.044576
  12 H :    0.049155
  13 C :    0.032216
  14 C :   -0.058537
  15 C :   -0.026796
  16 C :   -0.048192
  17 C :   -0.023084
  18 C :   -0.042101
  19 H :    0.036969
  20 H :    0.033653
  21 H :    0.030889
  22 H :    0.031920
  23 H :    0.030949
  24 H :    0.030036
  25 H :    0.026737
  26 H :    0.031367
  27 H :    0.030616
  28 H :    0.038972
  29 H :    0.040376

  Mayer bond orders larger than 0.100000
B(  0-C ,  1-C ) :   1.0599 B(  0-C , 27-H ) :   0.9759 B(  0-C , 28-H ) :   0.9603
B(  0-C , 29-H ) :   0.9596 B(  1-C ,  2-C ) :   1.9513 B(  1-C , 26-H ) :   0.9473
B(  2-C ,  3-C ) :   0.9946 B(  2-C , 25-H ) :   0.9642 B(  3-C ,  4-N ) :   0.9502
B(  3-C ,  8-C ) :   1.0358 B(  3-C , 24-H ) :   0.9305 B(  4-N ,  5-C ) :   1.0891
B(  4-N , 13-C ) :   0.9808 B(  5-C ,  6-O ) :   2.0777 B(  5-C ,  7-C ) :   0.9720
B(  7-C ,  8-C ) :   1.0618 B(  7-C , 11-H ) :   0.9471 B(  7-C , 12-H ) :   0.9253
B(  8-C ,  9-H ) :   0.9519 B(  8-C , 10-H ) :   0.9488 B( 13-C , 14-C ) :   1.3701
B( 13-C , 18-C ) :   1.3981 B( 14-C , 15-C ) :   1.4003 B( 14-C , 23-H ) :   0.9842
B( 15-C , 16-C ) :   1.3947 B( 15-C , 22-H ) :   0.9847 B( 16-C , 17-C ) :   1.3848
B( 16-C , 21-H ) :   0.9925 B( 17-C , 18-C ) :   1.3928 B( 17-C , 20-H ) :   0.9851
B( 18-C , 19-H ) :   0.9790

Dispersion correction           -0.012654306
FINAL SINGLE POINT ENERGY      -633.776109092586

DIPOLE MOMENT
-------------
                                X             Y             Z
Electronic contribution:      7.05813       7.50083       0.13289
Nuclear contribution   :     -7.87274      -8.44202       0.59638
                        -----------------------------------------
Total Dipole Moment    :     -0.81460      -0.94119       0.72928
                        -----------------------------------------
Magnitude (a.u.)       :      1.44266
Magnitude (Debye)      :      3.66694

Rotational constants in cm-1:     0.027433     0.016470     0.012482
Rotational constants in MHz :   822.408340   493.751608   374.188231

                             ****ORCA TERMINATED NORMALLY****
TOTAL RUN TIME: 0 days 0 hours 47 minutes 7 seconds 151 msec
