                         Program Version 4.2.0 -  RELEASE  -
|  1> # ORCA input file
|  2> # -42.26205387
|  3> ! wB97X-D3 def2-SVP Opt
|  4> * xyz 0 1
|  5>    C        2.50290         2.29360         0.30420
|  6>    C        1.01830         2.15810        -0.01220
|  7>    H        0.72850         2.86400        -0.79480
|  8>    H        0.42270         2.36320         0.88900
|  9>    O        0.65160         0.89020        -0.53400
| 10>    C        0.63140        -0.16690         0.37930
| 11>    O        1.88800        -0.71210         0.64190
| 12>    C        2.59670        -1.21740        -0.48490
| 13>    C        4.06840        -1.32060        -0.11840
| 14>    H        4.62490        -1.74400        -0.94990
| 15>    H        4.46930        -0.33850         0.11630
| 16>    H        4.18590        -1.95900         0.75270
| 17>    H        2.20700        -2.20980        -0.75140
| 18>    H        2.45530        -0.54150        -1.33650
| 19>    C       -0.37070        -1.21070        -0.17650
| 20>    C       -1.73120        -0.63310        -0.16700
| 21>    O       -2.43630        -0.58420         0.96850
| 22>    C       -2.49900        -0.02470        -1.13160
| 23>    N       -3.64390         0.36250        -0.52540
| 24>    N       -3.62170         0.04760         0.68050
| 25>    H       -2.30460         0.14800        -2.16730
| 26>    H       -0.32720        -2.09690         0.45740
| 27>    H       -0.09180        -1.45700        -1.20000
| 28>    H        0.28250         0.17860         1.36750
| 29>    H        2.79380         1.57650         1.06770
| 30>    H        2.70400         3.29870         0.66530
| 31>    H        3.09450         2.11500        -0.59040
| 32> *
| 33>
| 34>                          ****END OF INPUT****
 Total Charge           Charge          ....    0
 Multiplicity           Mult            ....    1
 Number of Electrons    NEL             ....  100
Dispersion correction           -0.011070835
FINAL SINGLE POINT ENERGY      -647.723983925755
Dispersion correction            ... done
Dispersion correction           -0.011001996
FINAL SINGLE POINT ENERGY      -647.726523741286
Dispersion correction            ... done
Dispersion correction           -0.010990166
FINAL SINGLE POINT ENERGY      -647.726849939278
Dispersion correction            ... done
FINAL SINGLE POINT ENERGY      -647.726955775388
FINAL SINGLE POINT ENERGY      -647.726975687403
FINAL SINGLE POINT ENERGY      -647.726984113086
Dispersion correction            ... done
Dispersion correction           -0.010962346
FINAL SINGLE POINT ENERGY      -647.726986157928
Dispersion correction            ... done
Dispersion correction           -0.010963289
FINAL SINGLE POINT ENERGY      -647.726985884040
Dispersion correction            ... done
                    ***********************HURRAY********************

CARTESIAN COORDINATES (ANGSTROEM)
---------------------------------
  C      2.538828    2.339989    0.225892
  C      1.038240    2.176885    0.050978
  H      0.649767    2.926383   -0.654673
  H      0.517612    2.336210    1.014644
  O      0.655758    0.924039   -0.485207
  C      0.626152   -0.149316    0.397370
  O      1.882383   -0.697630    0.649780
  C      2.583769   -1.228113   -0.459910
  C      4.044260   -1.355998   -0.084266
  H      4.610258   -1.831727   -0.898706
  H      4.484926   -0.368483    0.116262
  H      4.153834   -1.970439    0.821152
  H      2.175968   -2.220592   -0.731218
  H      2.461150   -0.565212   -1.334450
  C     -0.359810   -1.172284   -0.184826
  C     -1.745578   -0.639588   -0.208731
  O     -2.467043   -0.694636    0.909416
  C     -2.510405   -0.010264   -1.141918
  N     -3.699714    0.292584   -0.534414
  N     -3.694686   -0.095812    0.656371
  H     -2.293702    0.248311   -2.174080
  H     -0.323644   -2.087439    0.423434
  H     -0.059142   -1.420058   -1.212186
  H      0.267486    0.182537    1.390100
  H      2.931600    1.633163    0.969706
  H      2.771973    3.363143    0.557629
  H      3.059060    2.163949   -0.728151

 Multiplicity           Mult            ....    1
 Number of Electrons    NEL             ....  100
 Basis Dimension        Dim             ....  252

ORBITAL ENERGIES
----------------

  NO   OCC          E(Eh)            E(eV)
   0   2.0000     -19.343697      -526.3688
   1   2.0000     -19.260134      -524.0949
   2   2.0000     -19.256020      -523.9829
   3   2.0000     -14.520533      -395.1238
   4   2.0000     -14.475983      -393.9115
   5   2.0000     -10.404017      -283.1077
   6   2.0000     -10.376556      -282.3604
   7   2.0000     -10.345888      -281.5259
   8   2.0000     -10.344452      -281.4868
   9   2.0000     -10.326582      -281.0006
  10   2.0000     -10.322506      -280.8897
  11   2.0000     -10.289486      -279.9911
  12   2.0000     -10.286653      -279.9141
  13   2.0000      -1.301462       -35.4146
  14   2.0000      -1.196603       -32.5612
  15   2.0000      -1.131238       -30.7825
  16   2.0000      -1.098589       -29.8941
  17   2.0000      -0.954998       -25.9868
  18   2.0000      -0.904836       -24.6218
  19   2.0000      -0.870894       -23.6982
  20   2.0000      -0.856767       -23.3138
  21   2.0000      -0.778071       -21.1724
  22   2.0000      -0.762107       -20.7380
  23   2.0000      -0.742576       -20.2065
  24   2.0000      -0.722907       -19.6713
  25   2.0000      -0.687889       -18.7184
  26   2.0000      -0.648373       -17.6431
  27   2.0000      -0.634436       -17.2639
  28   2.0000      -0.620061       -16.8727
  29   2.0000      -0.614909       -16.7325
  30   2.0000      -0.597687       -16.2639
  31   2.0000      -0.574679       -15.6378
  32   2.0000      -0.556867       -15.1531
  33   2.0000      -0.537112       -14.6156
  34   2.0000      -0.530190       -14.4272
  35   2.0000      -0.521741       -14.1973
  36   2.0000      -0.508208       -13.8290
  37   2.0000      -0.501875       -13.6567
  38   2.0000      -0.489868       -13.3300
  39   2.0000      -0.478470       -13.0198
  40   2.0000      -0.469823       -12.7845
  41   2.0000      -0.462574       -12.5873
  42   2.0000      -0.452174       -12.3043
  43   2.0000      -0.451033       -12.2732
  44   2.0000      -0.441775       -12.0213
  45   2.0000      -0.408898       -11.1267
  46   2.0000      -0.389175       -10.5900
  47   2.0000      -0.383775       -10.4431
  48   2.0000      -0.380966       -10.3666
  49   2.0000      -0.357262        -9.7216
  50   0.0000       0.046501         1.2654
  51   0.0000       0.118295         3.2190
  52   0.0000       0.137800         3.7497
  53   0.0000       0.146542         3.9876
  54   0.0000       0.153422         4.1748

MULLIKEN ATOMIC CHARGES
-----------------------
   0 C :   -0.095622
   1 C :    0.130258
   2 H :    0.042028
   3 H :    0.024015
   4 O :   -0.394940
   5 C :    0.292396
   6 O :   -0.390608
   7 C :    0.114076
   8 C :   -0.057592
   9 H :    0.039069
  10 H :    0.041399
  11 H :    0.048832
  12 H :    0.021890
  13 H :    0.033341
  14 C :    0.093493
  15 C :    0.054892
  16 O :   -0.208460
  17 C :   -0.039784
  18 N :   -0.114393
  19 N :    0.043444
  20 H :    0.046439
  21 H :    0.064590
  22 H :    0.052209
  23 H :    0.020482
  24 H :    0.055558
  25 H :    0.039235
  26 H :    0.043751
Sum of atomic charges:   -0.0000000

LOEWDIN ATOMIC CHARGES
----------------------
   0 C :   -0.087455
   1 C :    0.071670
   2 H :    0.024982
   3 H :    0.013584
   4 O :   -0.161202
   5 C :    0.126324
   6 O :   -0.163751
   7 C :    0.065102
   8 C :   -0.072032
   9 H :    0.033684
  10 H :    0.030285
  11 H :    0.033754
  12 H :    0.007927
  13 H :    0.010182
  14 C :   -0.056158
  15 C :    0.026211
  16 O :   -0.001841
  17 C :   -0.083588
  18 N :   -0.059409
  19 N :   -0.003327
  20 H :    0.038794
  21 H :    0.053449
  22 H :    0.048048
  23 H :    0.012401
  24 H :    0.029152
  25 H :    0.033384
  26 H :    0.029830

  Mayer bond orders larger than 0.100000
B(  0-C ,  1-C ) :   1.0932 B(  0-C , 24-H ) :   0.9648 B(  0-C , 25-H ) :   0.9639
B(  0-C , 26-H ) :   0.9676 B(  1-C ,  2-H ) :   0.9648 B(  1-C ,  3-H ) :   0.9557
B(  1-C ,  4-O ) :   0.9544 B(  4-O ,  5-C ) :   1.0358 B(  5-C ,  6-O ) :   1.0602
B(  5-C , 14-C ) :   1.0220 B(  5-C , 23-H ) :   0.9286 B(  6-O ,  7-C ) :   0.9355
B(  7-C ,  8-C ) :   1.1000 B(  7-C , 12-H ) :   0.9481 B(  7-C , 13-H ) :   0.9454
B(  8-C ,  9-H ) :   0.9662 B(  8-C , 10-H ) :   0.9728 B(  8-C , 11-H ) :   0.9700
B( 14-C , 15-C ) :   1.0322 B( 14-C , 21-H ) :   0.9113 B( 14-C , 22-H ) :   0.9248
B( 15-C , 16-O ) :   1.1687 B( 15-C , 17-C ) :   1.5647 B( 15-C , 19-N ) :   0.1064
B( 16-O , 19-N ) :   0.9684 B( 17-C , 18-N ) :   1.2824 B( 17-C , 20-H ) :   1.0082
B( 18-N , 19-N ) :   1.6034

Dispersion correction           -0.010963722
FINAL SINGLE POINT ENERGY      -647.726984541559

DIPOLE MOMENT
-------------
                                X             Y             Z
Electronic contribution:    -22.26376      -2.57761       1.58204
Nuclear contribution   :     23.95054       2.43384      -2.24126
                        -----------------------------------------
Total Dipole Moment    :      1.68678      -0.14377      -0.65922
                        -----------------------------------------
Magnitude (a.u.)       :      1.81672
Magnitude (Debye)      :      4.61773

Rotational constants in cm-1:     0.049897     0.014016     0.012052
Rotational constants in MHz :  1495.877278   420.187902   361.319940

                             ****ORCA TERMINATED NORMALLY****
TOTAL RUN TIME: 0 days 0 hours 29 minutes 51 seconds 868 msec
