                         Program Version 4.2.0 -  RELEASE  -
|  1> # ORCA input file
|  2> # -32.24236961
|  3> ! wB97X-D3 def2-SVP Opt
|  4> * xyz 0 1
|  5>    C       -3.03220        -0.69490        -0.68130
|  6>    C       -2.35860         0.06170         0.46090
|  7>    H       -2.93940        -0.05810         1.37890
|  8>    O       -1.07850        -0.45380         0.80180
|  9>    C       -0.03420        -0.17720        -0.10010
| 10>    C        0.43310         1.28940        -0.14760
| 11>    O       -0.27510         2.26330        -0.20840
| 12>    C        1.90180         1.25380        -0.11340
| 13>    C        2.34290         0.01910         0.11590
| 14>    C        1.22800        -0.96170         0.32170
| 15>    O        1.45890        -2.14120        -0.40260
| 16>    H        0.74660        -2.76210        -0.21510
| 17>    H        1.13680        -1.18260         1.39840
| 18>    H        3.36630        -0.30970         0.16100
| 19>    H        2.49670         2.13920        -0.25250
| 20>    H       -0.30140        -0.46950        -1.12870
| 21>    H       -2.28840         1.12730         0.22440
| 22>    H       -4.05600        -0.34720        -0.78500
| 23>    H       -3.04250        -1.76230        -0.47160
| 24>    H       -2.51870        -0.52620        -1.62510
| 25> *
| 26>
| 27>                          ****END OF INPUT****
 Total Charge           Charge          ....    0
 Multiplicity           Mult            ....    1
 Number of Electrons    NEL             ....   76
Dispersion correction           -0.007021377
FINAL SINGLE POINT ENERGY      -497.891681769558
Dispersion correction            ... done
Dispersion correction           -0.007023147
FINAL SINGLE POINT ENERGY      -497.893385033526
Dispersion correction            ... done
Dispersion correction           -0.007020139
FINAL SINGLE POINT ENERGY      -497.893852028420
Dispersion correction            ... done
FINAL SINGLE POINT ENERGY      -497.894210360550
FINAL SINGLE POINT ENERGY      -497.894326278561
FINAL SINGLE POINT ENERGY      -497.894405323968
FINAL SINGLE POINT ENERGY      -497.894429194839
Dispersion correction            ... done
Dispersion correction           -0.007042522
FINAL SINGLE POINT ENERGY      -497.894436853319
Dispersion correction            ... done
Dispersion correction           -0.007041651
FINAL SINGLE POINT ENERGY      -497.894439948451
Dispersion correction            ... done
                    ***********************HURRAY********************

CARTESIAN COORDINATES (ANGSTROEM)
---------------------------------
  C     -3.015178   -0.872224   -0.649273
  C     -2.380147    0.086546    0.344787
  H     -3.000763    0.162020    1.250261
  O     -1.112463   -0.371517    0.786452
  C     -0.037100   -0.061050   -0.037973
  C      0.502101    1.375019    0.091089
  O     -0.156328    2.364439    0.290046
  C      1.974712    1.273236   -0.074029
  C      2.339840   -0.013665   -0.011123
  C      1.182770   -0.934428    0.272611
  O      1.283050   -2.111563   -0.477850
  H      0.573750   -2.698421   -0.197886
  H      1.159885   -1.153151    1.359844
  H      3.355281   -0.404854   -0.113480
  H      2.624200    2.140323   -0.202563
  H     -0.265098   -0.220491   -1.112636
  H     -2.292338    1.103482   -0.070284
  H     -4.019651   -0.524050   -0.932607
  H     -3.108596   -1.876898   -0.210373
  H     -2.421829   -0.955455   -1.573415

 Multiplicity           Mult            ....    1
 Number of Electrons    NEL             ....   76
 Basis Dimension        Dim             ....  190

ORBITAL ENERGIES
----------------

  NO   OCC          E(Eh)            E(eV)
   0   2.0000     -19.252319      -523.8822
   1   2.0000     -19.250350      -523.8287
   2   2.0000     -19.234914      -523.4086
   3   2.0000     -10.378703      -282.4189
   4   2.0000     -10.356289      -281.8089
   5   2.0000     -10.345399      -281.5126
   6   2.0000     -10.333946      -281.2010
   7   2.0000     -10.325587      -280.9735
   8   2.0000     -10.307662      -280.4858
   9   2.0000     -10.285870      -279.8927
  10   2.0000      -1.167294       -31.7637
  11   2.0000      -1.147072       -31.2134
  12   2.0000      -1.139292       -31.0017
  13   2.0000      -0.972079       -26.4516
  14   2.0000      -0.875713       -23.8294
  15   2.0000      -0.822594       -22.3839
  16   2.0000      -0.793036       -21.5796
  17   2.0000      -0.729900       -19.8616
  18   2.0000      -0.686987       -18.6939
  19   2.0000      -0.650593       -17.7035
  20   2.0000      -0.645115       -17.5545
  21   2.0000      -0.617142       -16.7933
  22   2.0000      -0.582875       -15.8608
  23   2.0000      -0.572377       -15.5752
  24   2.0000      -0.558961       -15.2101
  25   2.0000      -0.530818       -14.4443
  26   2.0000      -0.520255       -14.1568
  27   2.0000      -0.513646       -13.9770
  28   2.0000      -0.503991       -13.7143
  29   2.0000      -0.490776       -13.3547
  30   2.0000      -0.478898       -13.0315
  31   2.0000      -0.468880       -12.7589
  32   2.0000      -0.439148       -11.9498
  33   2.0000      -0.415797       -11.3144
  34   2.0000      -0.401147       -10.9158
  35   2.0000      -0.386522       -10.5178
  36   2.0000      -0.371577       -10.1111
  37   2.0000      -0.324976        -8.8431
  38   0.0000       0.019851         0.5402
  39   0.0000       0.120098         3.2680
  40   0.0000       0.142181         3.8689
  41   0.0000       0.159349         4.3361
  42   0.0000       0.169494         4.6122

MULLIKEN ATOMIC CHARGES
-----------------------
   0 C :   -0.087176
   1 C :    0.135701
   2 H :    0.039670
   3 O :   -0.393869
   4 C :    0.103387
   5 C :    0.087497
   6 O :   -0.193863
   7 C :   -0.046412
   8 C :   -0.041440
   9 C :    0.168010
  10 O :   -0.303125
  11 H :    0.181438
  12 H :    0.054929
  13 H :    0.055477
  14 H :    0.040052
  15 H :    0.043762
  16 H :    0.041474
  17 H :    0.040573
  18 H :    0.040739
  19 H :    0.033177
Sum of atomic charges:   -0.0000000

LOEWDIN ATOMIC CHARGES
----------------------
   0 C :   -0.086154
   1 C :    0.069578
   2 H :    0.025482
   3 O :   -0.162815
   4 C :    0.016219
   5 C :    0.065670
   6 O :   -0.145006
   7 C :   -0.060967
   8 C :    0.031618
   9 C :    0.046497
  10 O :   -0.126576
  11 H :    0.083750
  12 H :    0.030108
  13 H :    0.040004
  14 H :    0.039477
  15 H :    0.027820
  16 H :    0.017771
  17 H :    0.034208
  18 H :    0.028332
  19 H :    0.024984

  Mayer bond orders larger than 0.100000
B(  0-C ,  1-C ) :   1.0950 B(  0-C , 17-H ) :   0.9658 B(  0-C , 18-H ) :   0.9683
B(  0-C , 19-H ) :   0.9675 B(  1-C ,  2-H ) :   0.9630 B(  1-C ,  3-O ) :   0.9361
B(  1-C , 16-H ) :   0.9492 B(  3-O ,  4-C ) :   1.0364 B(  4-C ,  5-C ) :   0.9055
B(  4-C ,  9-C ) :   0.9901 B(  4-C , 15-H ) :   0.8931 B(  5-C ,  6-O ) :   2.1612
B(  5-C ,  7-C ) :   0.9774 B(  7-C ,  8-C ) :   1.7675 B(  7-C , 14-H ) :   0.9957
B(  8-C ,  9-C ) :   0.9986 B(  8-C , 13-H ) :   0.9804 B(  9-C , 10-O ) :   1.0785
B(  9-C , 12-H ) :   0.9094 B( 10-O , 11-H ) :   0.9765

Dispersion correction           -0.007041399
FINAL SINGLE POINT ENERGY      -497.894440830610

DIPOLE MOMENT
-------------
                                X             Y             Z
Electronic contribution:      7.01381       3.63489       1.98165
Nuclear contribution   :     -6.91017      -4.41344      -2.14648
                        -----------------------------------------
Total Dipole Moment    :      0.10365      -0.77855      -0.16483
                        -----------------------------------------
Magnitude (a.u.)       :      0.80253
Magnitude (Debye)      :      2.03987

Rotational constants in cm-1:     0.061880     0.037343     0.025138
Rotational constants in MHz :  1855.118809  1119.529374   753.609756

                             ****ORCA TERMINATED NORMALLY****
TOTAL RUN TIME: 0 days 0 hours 17 minutes 59 seconds 759 msec
