                         Program Version 4.2.0 -  RELEASE  -
|  1> # ORCA input file
|  2> # -54.17143476
|  3> ! wB97X-D3 def2-SVP Opt
|  4> * xyz 0 1
|  5>    C       -3.90690        -1.47900         0.27410
|  6>    H       -3.32190        -2.20110         0.83640
|  7>    H       -4.71650        -2.01190        -0.21870
|  8>    H       -4.33950        -0.76310         0.97000
|  9>    C       -3.04330        -0.77120        -0.76460
| 10>    C       -1.98910         0.14660        -0.15140
| 11>    C       -0.99020        -0.60490         0.72580
| 12>    O       -0.44240        -1.67210        -0.01780
| 13>    C        0.44710        -2.49470         0.70080
| 14>    C        1.84120        -1.89620         0.95800
| 15>    O        2.68850        -1.95060        -0.17100
| 16>    C        2.40090        -1.00440        -1.17700
| 17>    C        2.86720         0.41500        -0.83100
| 18>    O        1.91720         1.05400        -0.00930
| 19>    C        2.24340         2.39680         0.28400
| 20>    C        1.14900         2.99540         1.15260
| 21>    H        1.06250         2.43570         2.08090
| 22>    H        0.19600         2.96430         0.63050
| 23>    H        1.39190         4.02850         1.38510
| 24>    H        3.21470         2.43470         0.80350
| 25>    H        2.34020         2.96510        -0.65440
| 26>    H        3.84100         0.36620        -0.31990
| 27>    H        2.99520         0.98870        -1.76260
| 28>    H        1.32990        -0.98800        -1.40390
| 29>    H        2.95410        -1.34920        -2.05390
| 30>    H        2.34270        -2.50340         1.71610
| 31>    H        1.75270        -0.86770         1.32160
| 32>    H        0.00050        -2.77150         1.66850
| 33>    H        0.56180        -3.39460         0.09020
| 34>    H       -1.49270        -0.99290         1.62660
| 35>    H       -0.20520         0.09320         1.04310
| 36>    C       -1.31050         1.10980        -1.14250
| 37>    H       -1.69960         1.07810        -2.16370
| 38>    H       -0.21990         1.07590        -1.15480
| 39>    O       -1.80090         2.24920        -0.42600
| 40>    C       -2.51810         1.43540         0.50100
| 41>    H       -2.20300         1.61580         1.53290
| 42>    H       -3.59810         1.58800         0.41590
| 43>    H       -2.52810        -1.51190        -1.37800
| 44>    H       -3.68360        -0.17220        -1.41640
| 45> *
| 46>
| 47>                          ****END OF INPUT****
 Total Charge           Charge          ....    0
 Multiplicity           Mult            ....    1
 Number of Electrons    NEL             ....  128
Dispersion correction           -0.020721227
FINAL SINGLE POINT ENERGY      -771.795176166289
Dispersion correction            ... done
Dispersion correction           -0.021077099
FINAL SINGLE POINT ENERGY      -771.797421231115
Dispersion correction            ... done
Dispersion correction           -0.020094655
FINAL SINGLE POINT ENERGY      -771.794846300441
Dispersion correction            ... done
FINAL SINGLE POINT ENERGY      -771.798113822754
FINAL SINGLE POINT ENERGY      -771.798194500329
FINAL SINGLE POINT ENERGY      -771.798464038162
FINAL SINGLE POINT ENERGY      -771.798490806704
FINAL SINGLE POINT ENERGY      -771.798502962850
Dispersion correction            ... done
Dispersion correction           -0.020878447
FINAL SINGLE POINT ENERGY      -771.798503938599
Dispersion correction            ... done
Dispersion correction           -0.020872769
FINAL SINGLE POINT ENERGY      -771.798505248762
Dispersion correction            ... done
                    ***********************HURRAY********************

CARTESIAN COORDINATES (ANGSTROEM)
---------------------------------
  C     -3.862097   -1.536082    0.249891
  H     -3.244973   -2.269286    0.791199
  H     -4.680592   -2.089791   -0.233176
  H     -4.316144   -0.861113    0.994479
  C     -3.040629   -0.767507   -0.779803
  C     -1.981303    0.154471   -0.181479
  C     -0.996367   -0.574574    0.717585
  O     -0.445952   -1.657893    0.016153
  C      0.429818   -2.464150    0.766960
  C      1.819095   -1.877581    0.984691
  O      2.642927   -1.913977   -0.155474
  C      2.372465   -0.994933   -1.185308
  C      2.817609    0.425128   -0.890468
  O      1.922949    1.044977   -0.003498
  C      2.245960    2.379357    0.302426
  C      1.185252    2.949390    1.219013
  H      1.132542    2.369058    2.152942
  H      0.199314    2.925132    0.729307
  H      1.422862    3.991863    1.477074
  H      3.247231    2.423880    0.776978
  H      2.308662    2.973267   -0.632311
  H      3.841706    0.408529   -0.466257
  H      2.862561    0.991835   -1.844110
  H      1.302392   -0.993420   -1.454566
  H      2.940697   -1.351913   -2.057949
  H      2.327872   -2.500514    1.737607
  H      1.748257   -0.855324    1.394044
  H     -0.019716   -2.687740    1.756493
  H      0.528794   -3.414544    0.219904
  H     -1.512602   -0.937144    1.631888
  H     -0.212047    0.135698    1.038917
  C     -1.300827    1.113109   -1.179953
  H     -1.714815    1.084865   -2.203203
  H     -0.201509    1.052697   -1.219315
  O     -1.746331    2.264509   -0.453878
  C     -2.487801    1.462377    0.461219
  H     -2.186519    1.637806    1.510357
  H     -3.577269    1.628864    0.376171
  H     -2.533875   -1.477162   -1.453801
  H     -3.709400   -0.156367   -1.410050

 Multiplicity           Mult            ....    1
 Number of Electrons    NEL             ....  128
 Basis Dimension        Dim             ....  344

ORBITAL ENERGIES
----------------

  NO   OCC          E(Eh)            E(eV)
   0   2.0000     -19.248154      -523.7689
   1   2.0000     -19.245399      -523.6939
   2   2.0000     -19.232995      -523.3564
   3   2.0000     -19.231021      -523.3027
   4   2.0000     -10.334726      -281.2222
   5   2.0000     -10.333261      -281.1823
   6   2.0000     -10.332274      -281.1555
   7   2.0000     -10.331625      -281.1378
   8   2.0000     -10.331182      -281.1258
   9   2.0000     -10.326853      -281.0079
  10   2.0000     -10.326009      -280.9850
  11   2.0000     -10.323272      -280.9105
  12   2.0000     -10.295728      -280.1610
  13   2.0000     -10.283734      -279.8346
  14   2.0000     -10.280604      -279.7495
  15   2.0000     -10.274664      -279.5878
  16   2.0000      -1.157185       -31.4886
  17   2.0000      -1.153151       -31.3788
  18   2.0000      -1.147647       -31.2291
  19   2.0000      -1.129402       -30.7326
  20   2.0000      -0.920921       -25.0595
  21   2.0000      -0.890002       -24.2182
  22   2.0000      -0.861712       -23.4484
  23   2.0000      -0.838638       -22.8205
  24   2.0000      -0.814039       -22.1511
  25   2.0000      -0.797492       -21.7009
  26   2.0000      -0.773545       -21.0492
  27   2.0000      -0.733176       -19.9507
  28   2.0000      -0.714808       -19.4509
  29   2.0000      -0.708719       -19.2852
  30   2.0000      -0.683255       -18.5923
  31   2.0000      -0.637819       -17.3559
  32   2.0000      -0.620436       -16.8829
  33   2.0000      -0.616073       -16.7642
  34   2.0000      -0.604437       -16.4476
  35   2.0000      -0.597424       -16.2567
  36   2.0000      -0.590055       -16.0562
  37   2.0000      -0.577370       -15.7110
  38   2.0000      -0.569954       -15.5092
  39   2.0000      -0.557663       -15.1748
  40   2.0000      -0.546995       -14.8845
  41   2.0000      -0.539336       -14.6761
  42   2.0000      -0.527357       -14.3501
  43   2.0000      -0.516650       -14.0587
  44   2.0000      -0.509343       -13.8599
  45   2.0000      -0.497437       -13.5359
  46   2.0000      -0.494715       -13.4619
  47   2.0000      -0.485138       -13.2013
  48   2.0000      -0.480085       -13.0638
  49   2.0000      -0.471373       -12.8267
  50   2.0000      -0.469501       -12.7758
  51   2.0000      -0.463007       -12.5991
  52   2.0000      -0.448267       -12.1980
  53   2.0000      -0.441454       -12.0126
  54   2.0000      -0.428794       -11.6681
  55   2.0000      -0.424780       -11.5589
  56   2.0000      -0.408286       -11.1100
  57   2.0000      -0.398680       -10.8486
  58   2.0000      -0.396262       -10.7828
  59   2.0000      -0.384672       -10.4675
  60   2.0000      -0.369618       -10.0578
  61   2.0000      -0.356365        -9.6972
  62   2.0000      -0.339986        -9.2515
  63   2.0000      -0.328188        -8.9305
  64   0.0000       0.134741         3.6665
  65   0.0000       0.139264         3.7896
  66   0.0000       0.149896         4.0789
  67   0.0000       0.157489         4.2855
  68   0.0000       0.169038         4.5998

MULLIKEN ATOMIC CHARGES
-----------------------
   0 C :   -0.058867
   1 H :    0.040500
   2 H :    0.039363
   3 H :    0.025163
   4 C :    0.035256
   5 C :   -0.564817
   6 C :    0.286155
   7 O :   -0.403708
   8 C :    0.149825
   9 C :    0.159388
  10 O :   -0.415276
  11 C :    0.188668
  12 C :    0.127137
  13 O :   -0.412777
  14 C :    0.128634
  15 C :   -0.080566
  16 H :    0.037748
  17 H :    0.064015
  18 H :    0.034720
  19 H :    0.013638
  20 H :    0.014289
  21 H :    0.020946
  22 H :    0.014220
  23 H :    0.033483
  24 H :    0.028342
  25 H :    0.028321
  26 H :    0.026191
  27 H :    0.007120
  28 H :    0.039263
  29 H :    0.001119
  30 H :    0.019404
  31 C :    0.340583
  32 H :    0.013076
  33 H :    0.023131
  34 O :   -0.422570
  35 C :    0.322052
  36 H :    0.015951
  37 H :    0.019478
  38 H :    0.043674
  39 H :    0.017728
Sum of atomic charges:    0.0000000

LOEWDIN ATOMIC CHARGES
----------------------
   0 C :   -0.066601
   1 H :    0.026276
   2 H :    0.030534
   3 H :    0.022598
   4 C :   -0.036961
   5 C :   -0.085572
   6 C :    0.075866
   7 O :   -0.163380
   8 C :    0.050862
   9 C :    0.048369
  10 O :   -0.175394
  11 C :    0.057252
  12 C :    0.048586
  13 O :   -0.166649
  14 C :    0.066493
  15 C :   -0.082010
  16 H :    0.026383
  17 H :    0.033414
  18 H :    0.032688
  19 H :    0.006513
  20 H :    0.007739
  21 H :    0.011745
  22 H :    0.011693
  23 H :    0.013496
  24 H :    0.027569
  25 H :    0.026286
  26 H :    0.009733
  27 H :    0.011045
  28 H :    0.026585
  29 H :    0.002777
  30 H :    0.009110
  31 C :    0.105640
  32 H :    0.009452
  33 H :    0.006875
  34 O :   -0.201090
  35 C :    0.101735
  36 H :    0.007797
  37 H :    0.010337
  38 H :    0.030708
  39 H :    0.021500

  Mayer bond orders larger than 0.100000
B(  0-C ,  1-H ) :   0.9699 B(  0-C ,  2-H ) :   0.9718 B(  0-C ,  3-H ) :   0.9730
B(  0-C ,  4-C ) :   1.0866 B(  4-C ,  5-C ) :   0.9982 B(  4-C , 38-H ) :   0.9428
B(  4-C , 39-H ) :   0.9457 B(  5-C ,  6-C ) :   0.9851 B(  5-C , 31-C ) :   1.0303
B(  5-C , 35-C ) :   1.0200 B(  6-C ,  7-O ) :   0.9928 B(  6-C , 29-H ) :   0.9316
B(  6-C , 30-H ) :   0.9306 B(  7-O ,  8-C ) :   0.9767 B(  8-C ,  9-C ) :   1.0651
B(  8-C , 27-H ) :   0.9414 B(  8-C , 28-H ) :   0.9472 B(  9-C , 10-O ) :   0.9910
B(  9-C , 25-H ) :   0.9492 B(  9-C , 26-H ) :   0.9380 B( 10-O , 11-C ) :   0.9975
B( 11-C , 12-C ) :   1.0685 B( 11-C , 23-H ) :   0.9432 B( 11-C , 24-H ) :   0.9481
B( 12-C , 13-O ) :   0.9612 B( 12-C , 21-H ) :   0.9347 B( 12-C , 22-H ) :   0.9428
B( 13-O , 14-C ) :   0.9582 B( 14-C , 15-C ) :   1.0954 B( 14-C , 19-H ) :   0.9515
B( 14-C , 20-H ) :   0.9492 B( 15-C , 16-H ) :   0.9686 B( 15-C , 17-H ) :   0.9521
B( 15-C , 18-H ) :   0.9623 B( 31-C , 32-H ) :   0.9409 B( 31-C , 33-H ) :   0.9381
B( 31-C , 34-O ) :   0.9816 B( 34-O , 35-C ) :   0.9945 B( 35-C , 36-H ) :   0.9475
B( 35-C , 37-H ) :   0.9415

Dispersion correction           -0.020867803
FINAL SINGLE POINT ENERGY      -771.798506006644

DIPOLE MOMENT
-------------
                                X             Y             Z
Electronic contribution:      3.82198      -1.85685      -3.05426
Nuclear contribution   :     -3.78845       1.79504       3.38846
                        -----------------------------------------
Total Dipole Moment    :      0.03353      -0.06181       0.33420
                        -----------------------------------------
Magnitude (a.u.)       :      0.34152
Magnitude (Debye)      :      0.86807

Rotational constants in cm-1:     0.020384     0.013457     0.009436
Rotational constants in MHz :   611.087279   403.423513   282.890296

                             ****ORCA TERMINATED NORMALLY****
TOTAL RUN TIME: 0 days 1 hours 33 minutes 10 seconds 607 msec
