                         Program Version 4.2.0 -  RELEASE  -
|  1> # ORCA input file
|  2> # -47.00816256
|  3> ! wB97X-D3 def2-SVP Opt
|  4> * xyz 0 1
|  5>    C        2.05690         1.64620         1.27240
|  6>    H        3.08590         1.47580         1.58030
|  7>    H        1.84360         2.71050         1.32780
|  8>    H        1.38880         1.12780         1.95610
|  9>    C        1.85810         1.15990        -0.16400
| 10>    C        2.59000         2.06230        -1.15420
| 11>    H        3.64890         2.08420        -0.91250
| 12>    H        2.19070         3.07180        -1.11270
| 13>    H        2.47610         1.67370        -2.16250
| 14>    O        2.37250        -0.14560        -0.38480
| 15>    C        1.78430        -1.20430         0.32260
| 16>    C        0.34660        -1.57260        -0.12060
| 17>    C       -0.63150        -0.58260         0.50100
| 18>    O       -0.59220        -0.25780         1.66380
| 19>    O       -1.56600        -0.16950        -0.35070
| 20>    C       -2.58110         0.71590         0.15250
| 21>    C       -2.06810         2.15200         0.14790
| 22>    H       -1.21250         2.24450         0.81260
| 23>    H       -1.77010         2.43880        -0.85840
| 24>    H       -2.85080         2.82250         0.49140
| 25>    C       -3.80170         0.53780        -0.73830
| 26>    H       -4.61450         1.16200        -0.37880
| 27>    H       -4.12430        -0.50010        -0.73320
| 28>    H       -3.55850         0.82120        -1.75910
| 29>    H       -2.80620         0.41390         1.18390
| 30>    C        0.24870        -1.62680        -1.64210
| 31>    H        0.94790        -2.36840        -2.02160
| 32>    H       -0.75730        -1.89560        -1.95240
| 33>    H        0.50280        -0.66500        -2.07820
| 34>    C       -0.01110        -2.93670         0.48700
| 35>    H        0.05290        -2.89430         1.57190
| 36>    H        0.67340        -3.69920         0.12310
| 37>    H       -1.02460        -3.21810         0.20850
| 38>    H        1.77710        -1.01510         1.40320
| 39>    H        2.43930        -2.05640         0.12100
| 40>    H        0.78140         1.17280        -0.39790
| 41> *
| 42>
| 43>                          ****END OF INPUT****
 Total Charge           Charge          ....    0
 Multiplicity           Mult            ....    1
 Number of Electrons    NEL             ....  112
Dispersion correction           -0.018063214
FINAL SINGLE POINT ENERGY      -657.473136441333
Dispersion correction            ... done
Dispersion correction           -0.017968783
FINAL SINGLE POINT ENERGY      -657.475736084596
Dispersion correction            ... done
Dispersion correction           -0.018261162
FINAL SINGLE POINT ENERGY      -657.475896869776
Dispersion correction            ... done
FINAL SINGLE POINT ENERGY      -657.476130613848
FINAL SINGLE POINT ENERGY      -657.476135070699
FINAL SINGLE POINT ENERGY      -657.476240089514
FINAL SINGLE POINT ENERGY      -657.476249530385
Dispersion correction            ... done
Dispersion correction           -0.018242337
FINAL SINGLE POINT ENERGY      -657.476257182647
Dispersion correction            ... done
Dispersion correction           -0.018233475
FINAL SINGLE POINT ENERGY      -657.476259083793
Dispersion correction            ... done
                    ***********************HURRAY********************

CARTESIAN COORDINATES (ANGSTROEM)
---------------------------------
  C      1.987762    1.681033    1.227764
  H      3.049905    1.654472    1.517572
  H      1.638501    2.722739    1.292307
  H      1.405828    1.093955    1.952603
  C      1.818086    1.159954   -0.195103
  C      2.522883    2.033005   -1.219607
  H      3.601712    2.073857   -1.004245
  H      2.122970    3.057497   -1.205997
  H      2.391810    1.615832   -2.228447
  O      2.349906   -0.141781   -0.366992
  C      1.771917   -1.196049    0.346226
  C      0.345710   -1.597450   -0.101024
  C     -0.664848   -0.636899    0.527548
  O     -0.679115   -0.368456    1.704687
  O     -1.554074   -0.155671   -0.343020
  C     -2.571727    0.736441    0.151210
  C     -2.003173    2.139183    0.288855
  H     -1.177327    2.151830    1.013566
  H     -1.635071    2.505289   -0.682169
  H     -2.780453    2.830292    0.647095
  C     -3.725555    0.640940   -0.828079
  H     -4.557989    1.280614   -0.500775
  H     -4.090537   -0.393497   -0.898440
  H     -3.410374    0.965637   -1.831161
  H     -2.876797    0.371312    1.144495
  C      0.254532   -1.654187   -1.625336
  H      1.019261   -2.342552   -2.016385
  H     -0.733106   -2.009701   -1.950762
  H      0.426706   -0.670244   -2.081406
  C      0.039058   -2.975109    0.513391
  H      0.139866   -2.947335    1.608369
  H      0.729490   -3.733150    0.113253
  H     -0.987566   -3.291207    0.273021
  H      1.757621   -1.006256    1.435158
  H      2.432199   -2.059644    0.170019
  H      0.737391    1.150807   -0.443191

 Multiplicity           Mult            ....    1
 Number of Electrons    NEL             ....  112
 Basis Dimension        Dim             ....  306

ORBITAL ENERGIES
----------------

  NO   OCC          E(Eh)            E(eV)
   0   2.0000     -19.285230      -524.7778
   1   2.0000     -19.233569      -523.3720
   2   2.0000     -19.225689      -523.1576
   3   2.0000     -10.414780      -283.4006
   4   2.0000     -10.353071      -281.7214
   5   2.0000     -10.333742      -281.1954
   6   2.0000     -10.330404      -281.1046
   7   2.0000     -10.308283      -280.5026
   8   2.0000     -10.290252      -280.0120
   9   2.0000     -10.289743      -279.9981
  10   2.0000     -10.288239      -279.9572
  11   2.0000     -10.278152      -279.6827
  12   2.0000     -10.274350      -279.5793
  13   2.0000     -10.272386      -279.5258
  14   2.0000      -1.217279       -33.1239
  15   2.0000      -1.138925       -30.9917
  16   2.0000      -1.120949       -30.5026
  17   2.0000      -0.940238       -25.5852
  18   2.0000      -0.907049       -24.6821
  19   2.0000      -0.884166       -24.0594
  20   2.0000      -0.808012       -21.9871
  21   2.0000      -0.798304       -21.7229
  22   2.0000      -0.794625       -21.6229
  23   2.0000      -0.774505       -21.0753
  24   2.0000      -0.763549       -20.7772
  25   2.0000      -0.703342       -19.1389
  26   2.0000      -0.668438       -18.1891
  27   2.0000      -0.653828       -17.7916
  28   2.0000      -0.608155       -16.5487
  29   2.0000      -0.600752       -16.3473
  30   2.0000      -0.587382       -15.9835
  31   2.0000      -0.572592       -15.5810
  32   2.0000      -0.567469       -15.4416
  33   2.0000      -0.553709       -15.0672
  34   2.0000      -0.538503       -14.6534
  35   2.0000      -0.534007       -14.5311
  36   2.0000      -0.519939       -14.1483
  37   2.0000      -0.507090       -13.7986
  38   2.0000      -0.497980       -13.5507
  39   2.0000      -0.493698       -13.4342
  40   2.0000      -0.488298       -13.2873
  41   2.0000      -0.480510       -13.0753
  42   2.0000      -0.478158       -13.0113
  43   2.0000      -0.473911       -12.8958
  44   2.0000      -0.468139       -12.7387
  45   2.0000      -0.463962       -12.6250
  46   2.0000      -0.457270       -12.4430
  47   2.0000      -0.452112       -12.3026
  48   2.0000      -0.437476       -11.9043
  49   2.0000      -0.436125       -11.8676
  50   2.0000      -0.428915       -11.6714
  51   2.0000      -0.426206       -11.5977
  52   2.0000      -0.395119       -10.7517
  53   2.0000      -0.387045       -10.5320
  54   2.0000      -0.366890        -9.9836
  55   2.0000      -0.342395        -9.3170
  56   0.0000       0.093968         2.5570
  57   0.0000       0.128013         3.4834
  58   0.0000       0.151263         4.1161
  59   0.0000       0.154411         4.2017
  60   0.0000       0.169965         4.6250

MULLIKEN ATOMIC CHARGES
-----------------------
   0 C :   -0.054601
   1 H :    0.036312
   2 H :    0.032064
   3 H :    0.056525
   4 C :    0.025952
   5 C :   -0.008687
   6 H :    0.037159
   7 H :    0.027247
   8 H :    0.038528
   9 O :   -0.396953
  10 C :    0.271701
  11 C :   -0.456181
  12 C :    0.271719
  13 O :   -0.249445
  14 O :   -0.313721
  15 C :    0.036105
  16 C :   -0.042833
  17 H :    0.055805
  18 H :    0.041082
  19 H :    0.043575
  20 C :   -0.015624
  21 H :    0.039505
  22 H :    0.046547
  23 H :    0.038654
  24 H :    0.044283
  25 C :    0.087526
  26 H :    0.027357
  27 H :    0.028876
  28 H :    0.039035
  29 C :    0.016840
  30 H :    0.054219
  31 H :    0.039915
  32 H :    0.036640
  33 H :    0.029086
  34 H :    0.022723
  35 H :    0.013064
Sum of atomic charges:   -0.0000000

LOEWDIN ATOMIC CHARGES
----------------------
   0 C :   -0.078638
   1 H :    0.029692
   2 H :    0.030753
   3 H :    0.028166
   4 C :    0.052102
   5 C :   -0.064287
   6 H :    0.029959
   7 H :    0.027824
   8 H :    0.029626
   9 O :   -0.163670
  10 C :    0.081933
  11 C :   -0.107862
  12 C :    0.096979
  13 O :   -0.194162
  14 O :   -0.083122
  15 C :    0.070134
  16 C :   -0.070104
  17 H :    0.033823
  18 H :    0.028309
  19 H :    0.036433
  20 C :   -0.064695
  21 H :    0.034543
  22 H :    0.033129
  23 H :    0.030631
  24 H :    0.022490
  25 C :   -0.047078
  26 H :    0.029202
  27 H :    0.025436
  28 H :    0.028867
  29 C :   -0.036317
  30 H :    0.033484
  31 H :    0.028943
  32 H :    0.029132
  33 H :    0.012266
  34 H :    0.022711
  35 H :    0.003368

  Mayer bond orders larger than 0.100000
B(  0-C ,  1-H ) :   0.9607 B(  0-C ,  2-H ) :   0.9615 B(  0-C ,  3-H ) :   0.9589
B(  0-C ,  4-C ) :   1.0641 B(  4-C ,  5-C ) :   1.0668 B(  4-C ,  9-O ) :   0.9645
B(  4-C , 35-H ) :   0.9203 B(  5-C ,  6-H ) :   0.9675 B(  5-C ,  7-H ) :   0.9660
B(  5-C ,  8-H ) :   0.9684 B(  9-O , 10-C ) :   1.0352 B( 10-C , 11-C ) :   0.9797
B( 10-C , 33-H ) :   0.9490 B( 10-C , 34-H ) :   0.9560 B( 11-C , 12-C ) :   0.8749
B( 11-C , 25-C ) :   1.0266 B( 11-C , 29-C ) :   1.0313 B( 12-C , 13-O ) :   2.0401
B( 12-C , 14-O ) :   1.1998 B( 14-O , 15-C ) :   0.8626 B( 15-C , 16-C ) :   1.0848
B( 15-C , 20-C ) :   1.0685 B( 15-C , 24-H ) :   0.9400 B( 16-C , 17-H ) :   0.9613
B( 16-C , 18-H ) :   0.9579 B( 16-C , 19-H ) :   0.9661 B( 20-C , 21-H ) :   0.9672
B( 20-C , 22-H ) :   0.9694 B( 20-C , 23-H ) :   0.9648 B( 25-C , 26-H ) :   0.9639
B( 25-C , 27-H ) :   0.9627 B( 25-C , 28-H ) :   0.9645 B( 29-C , 30-H ) :   0.9672
B( 29-C , 31-H ) :   0.9705 B( 29-C , 32-H ) :   0.9684

Dispersion correction           -0.018239326
FINAL SINGLE POINT ENERGY      -657.476260152795

DIPOLE MOMENT
-------------
                                X             Y             Z
Electronic contribution:     -0.10784      -4.69761       3.22961
Nuclear contribution   :     -0.57716       4.86587      -3.55924
                        -----------------------------------------
Total Dipole Moment    :     -0.68500       0.16826      -0.32962
                        -----------------------------------------
Magnitude (a.u.)       :      0.77858
Magnitude (Debye)      :      1.97900

Rotational constants in cm-1:     0.026447     0.018041     0.013829
Rotational constants in MHz :   792.848531   540.857646   414.586841

                             ****ORCA TERMINATED NORMALLY****
TOTAL RUN TIME: 0 days 1 hours 5 minutes 40 seconds 850 msec
