                         Program Version 4.2.0 -  RELEASE  -
|  1> # ORCA input file
|  2> # -46.46425335
|  3> ! wB97X-D3 def2-SVP Opt
|  4> * xyz 0 1
|  5>    C       -3.17090        -2.51810        -1.42830
|  6>    H       -3.42620        -3.31760        -0.73550
|  7>    C       -2.26120        -1.49820        -0.75580
|  8>    C       -2.91950        -0.86780         0.46860
|  9>    H       -3.13770        -1.63870         1.21060
| 10>    H       -3.85880        -0.39740         0.17330
| 11>    C       -2.02730         0.19060         1.10870
| 12>    O       -1.94470         1.29930         0.23650
| 13>    C       -1.20120         2.38560         0.73540
| 14>    C        0.30950         2.13450         0.78270
| 15>    H        0.51570         1.31080         1.46640
| 16>    H        0.79940         3.02880         1.17060
| 17>    C        0.86870         1.77270        -0.59900
| 18>    C        1.32280         3.01300        -1.36190
| 19>    H        2.15080         3.49510        -0.84530
| 20>    H        0.50690         3.72630        -1.44730
| 21>    H        1.65220         2.74940        -2.36480
| 22>    C        2.01880         0.76870        -0.46250
| 23>    N        1.52990        -0.45120         0.14850
| 24>    H        0.83000        -0.87310        -0.45550
| 25>    C        2.52560        -1.44260         0.51220
| 26>    C        1.84400        -2.50400         1.37560
| 27>    H        2.57580        -3.20760         1.76350
| 28>    H        1.33250        -2.03180         2.21000
| 29>    H        1.11140        -3.05420         0.78840
| 30>    C        3.22350        -2.10160        -0.68580
| 31>    H        2.49040        -2.59580        -1.32190
| 32>    H        3.75570        -1.36140        -1.27880
| 33>    H        3.94000        -2.84350        -0.34270
| 34>    H        3.27950        -0.92380         1.11810
| 35>    H        2.47010         0.60670        -1.45650
| 36>    H        2.79270         1.18350         0.19170
| 37>    H        0.06540         1.28580        -1.16290
| 38>    H       -1.42250         3.21050         0.05220
| 39>    H       -1.56110         2.65790         1.74050
| 40>    H       -2.45410         0.51410         2.07250
| 41>    H       -1.03060        -0.23090         1.29620
| 42>    H       -2.01110        -0.70470        -1.46140
| 43>    H       -1.33270        -1.98600        -0.44830
| 44>    H       -4.09300        -2.04600        -1.75960
| 45>    H       -2.68110        -2.95800        -2.29430
| 46> *
| 47>
| 48>                          ****END OF INPUT****
 Total Charge           Charge          ....    0
 Multiplicity           Mult            ....    1
 Number of Electrons    NEL             ....  114
Dispersion correction           -0.018037738
FINAL SINGLE POINT ENERGY      -602.929771895828
Dispersion correction            ... done
Dispersion correction           -0.018064552
FINAL SINGLE POINT ENERGY      -602.933256033074
Dispersion correction            ... done
Dispersion correction           -0.018165776
FINAL SINGLE POINT ENERGY      -602.933680521818
Dispersion correction            ... done
FINAL SINGLE POINT ENERGY      -602.933856169632
FINAL SINGLE POINT ENERGY      -602.933895405839
FINAL SINGLE POINT ENERGY      -602.933929334982
FINAL SINGLE POINT ENERGY      -602.933941042300
FINAL SINGLE POINT ENERGY      -602.933952025680
FINAL SINGLE POINT ENERGY      -602.933955794421
Dispersion correction            ... done
Dispersion correction           -0.018131191
FINAL SINGLE POINT ENERGY      -602.933958536406
Dispersion correction            ... done
Dispersion correction           -0.018135124
FINAL SINGLE POINT ENERGY      -602.933960611328
Dispersion correction            ... done
                    ***********************HURRAY********************

CARTESIAN COORDINATES (ANGSTROEM)
---------------------------------
  C     -3.274346   -2.477528   -1.389476
  H     -3.416743   -3.339153   -0.717012
  C     -2.343929   -1.439174   -0.773009
  C     -2.855250   -0.881175    0.553331
  H     -2.952384   -1.696112    1.291985
  H     -3.864896   -0.457114    0.414645
  C     -1.955793    0.192735    1.136769
  O     -1.953966    1.299876    0.268724
  C     -1.214171    2.406603    0.714597
  C      0.292594    2.162931    0.743758
  H      0.515963    1.371111    1.475927
  H      0.789315    3.078013    1.112238
  C      0.867320    1.757205   -0.621572
  C      1.308847    2.967464   -1.441425
  H      2.160427    3.479417   -0.962170
  H      0.494531    3.702279   -1.540947
  H      1.619621    2.679745   -2.457994
  C      2.001164    0.739684   -0.465069
  N      1.500455   -0.507487    0.075696
  H      0.864253   -0.947231   -0.588252
  C      2.475930   -1.474173    0.556097
  C      1.734584   -2.626601    1.226750
  H      2.434204   -3.357747    1.658742
  H      1.078252   -2.251853    2.025486
  H      1.105369   -3.162248    0.494881
  C      3.444227   -1.982624   -0.518286
  H      2.894584   -2.504650   -1.320288
  H      4.008865   -1.158411   -0.979885
  H      4.175231   -2.690080   -0.096762
  H      3.070193   -0.954292    1.331003
  H      2.519662    0.623408   -1.441129
  H      2.757455    1.139280    0.236806
  H      0.059059    1.244467   -1.174986
  H     -1.456218    3.225759    0.018000
  H     -1.562413    2.720306    1.720247
  H     -2.320908    0.499609    2.138678
  H     -0.931641   -0.208679    1.263733
  H     -2.197126   -0.599419   -1.471726
  H     -1.345291   -1.884497   -0.610904
  H     -4.269166   -2.049040   -1.590568
  H     -2.880262   -2.861308   -2.342532

 Multiplicity           Mult            ....    1
 Number of Electrons    NEL             ....  114
 Basis Dimension        Dim             ....  331

ORBITAL ENERGIES
----------------

  NO   OCC          E(Eh)            E(eV)
   0   2.0000     -19.229333      -523.2567
   1   2.0000     -14.409743      -392.1090
   2   2.0000     -10.324190      -280.9355
   3   2.0000     -10.318668      -280.7852
   4   2.0000     -10.314024      -280.6589
   5   2.0000     -10.303820      -280.3812
   6   2.0000     -10.281202      -279.7657
   7   2.0000     -10.277894      -279.6757
   8   2.0000     -10.277142      -279.6552
   9   2.0000     -10.276953      -279.6501
  10   2.0000     -10.276640      -279.6416
  11   2.0000     -10.275645      -279.6145
  12   2.0000     -10.274193      -279.5750
  13   2.0000     -10.271788      -279.5096
  14   2.0000      -1.133506       -30.8443
  15   2.0000      -1.017232       -27.6803
  16   2.0000      -0.917674       -24.9712
  17   2.0000      -0.900109       -24.4932
  18   2.0000      -0.866664       -23.5831
  19   2.0000      -0.839529       -22.8448
  20   2.0000      -0.807345       -21.9690
  21   2.0000      -0.792384       -21.5619
  22   2.0000      -0.763993       -20.7893
  23   2.0000      -0.738901       -20.1065
  24   2.0000      -0.705911       -19.2088
  25   2.0000      -0.688286       -18.7292
  26   2.0000      -0.673225       -18.3194
  27   2.0000      -0.651786       -17.7360
  28   2.0000      -0.595660       -16.2087
  29   2.0000      -0.583242       -15.8708
  30   2.0000      -0.574894       -15.6437
  31   2.0000      -0.570275       -15.5180
  32   2.0000      -0.556496       -15.1430
  33   2.0000      -0.544638       -14.8203
  34   2.0000      -0.540620       -14.7110
  35   2.0000      -0.531600       -14.4656
  36   2.0000      -0.523070       -14.2335
  37   2.0000      -0.505904       -13.7663
  38   2.0000      -0.498927       -13.5765
  39   2.0000      -0.488322       -13.2879
  40   2.0000      -0.484122       -13.1736
  41   2.0000      -0.482272       -13.1233
  42   2.0000      -0.473220       -12.8770
  43   2.0000      -0.467963       -12.7339
  44   2.0000      -0.456382       -12.4188
  45   2.0000      -0.448655       -12.2085
  46   2.0000      -0.439270       -11.9531
  47   2.0000      -0.432565       -11.7707
  48   2.0000      -0.425889       -11.5890
  49   2.0000      -0.422497       -11.4967
  50   2.0000      -0.415256       -11.2997
  51   2.0000      -0.411110       -11.1869
  52   2.0000      -0.409205       -11.1350
  53   2.0000      -0.406159       -11.0522
  54   2.0000      -0.381736       -10.3876
  55   2.0000      -0.341036        -9.2801
  56   2.0000      -0.307553        -8.3689
  57   0.0000       0.126007         3.4288
  58   0.0000       0.142640         3.8814
  59   0.0000       0.149039         4.0556
  60   0.0000       0.153338         4.1725
  61   0.0000       0.165615         4.5066

MULLIKEN ATOMIC CHARGES
-----------------------
   0 C :   -0.031649
   1 H :    0.025698
   2 C :   -0.115941
   3 C :   -0.051998
   4 H :    0.018830
   5 H :    0.028335
   6 C :    0.188759
   7 O :   -0.414481
   8 C :    0.209623
   9 C :   -0.053577
  10 H :    0.035687
  11 H :    0.015878
  12 C :   -0.175872
  13 C :   -0.002002
  14 H :    0.024922
  15 H :    0.028949
  16 H :    0.029092
  17 C :    0.129065
  18 N :   -0.303353
  19 H :    0.116422
  20 C :   -0.051153
  21 C :   -0.024782
  22 H :    0.031953
  23 H :    0.046425
  24 H :    0.024445
  25 C :   -0.033271
  26 H :    0.021682
  27 H :    0.038313
  28 H :    0.030855
  29 H :    0.021484
  30 H :    0.003282
  31 H :    0.008543
  32 H :    0.029068
  33 H :    0.018886
  34 H :    0.004975
  35 H :   -0.000588
  36 H :    0.006347
  37 H :    0.046781
  38 H :    0.013995
  39 H :    0.030419
  40 H :    0.029954
Sum of atomic charges:   -0.0000000

LOEWDIN ATOMIC CHARGES
----------------------
   0 C :   -0.066504
   1 H :    0.023097
   2 C :   -0.050863
   3 C :   -0.050678
   4 H :    0.025464
   5 H :    0.026009
   6 C :    0.069173
   7 O :   -0.172995
   8 C :    0.070281
   9 C :   -0.056457
  10 H :    0.024411
  11 H :    0.024791
  12 C :   -0.050625
  13 C :   -0.057887
  14 H :    0.023071
  15 H :    0.025050
  16 H :    0.023971
  17 C :    0.023442
  18 N :   -0.104742
  19 H :    0.053050
  20 C :    0.005854
  21 C :   -0.065385
  22 H :    0.027743
  23 H :    0.029200
  24 H :    0.022091
  25 C :   -0.078595
  26 H :    0.022621
  27 H :    0.025437
  28 H :    0.027714
  29 H :    0.019992
  30 H :    0.000242
  31 H :    0.017402
  32 H :    0.022303
  33 H :    0.017844
  34 H :    0.005315
  35 H :    0.003978
  36 H :    0.001429
  37 H :    0.026464
  38 H :    0.016566
  39 H :    0.025469
  40 H :    0.025258

  Mayer bond orders larger than 0.100000
B(  0-C ,  1-H ) :   0.9729 B(  0-C ,  2-C ) :   1.0896 B(  0-C , 39-H ) :   0.9737
B(  0-C , 40-H ) :   0.9735 B(  2-C ,  3-C ) :   1.0633 B(  2-C , 37-H ) :   0.9536
B(  2-C , 38-H ) :   0.9477 B(  3-C ,  4-H ) :   0.9445 B(  3-C ,  5-H ) :   0.9488
B(  3-C ,  6-C ) :   1.0820 B(  6-C ,  7-O ) :   0.9771 B(  6-C , 35-H ) :   0.9412
B(  6-C , 36-H ) :   0.9270 B(  7-O ,  8-C ) :   0.9989 B(  8-C ,  9-C ) :   1.0663
B(  8-C , 33-H ) :   0.9546 B(  8-C , 34-H ) :   0.9494 B(  9-C , 10-H ) :   0.9425
B(  9-C , 11-H ) :   0.9410 B(  9-C , 12-C ) :   1.0070 B( 12-C , 13-C ) :   1.0623
B( 12-C , 17-C ) :   1.0370 B( 12-C , 32-H ) :   0.9350 B( 13-C , 14-H ) :   0.9681
B( 13-C , 15-H ) :   0.9695 B( 13-C , 16-H ) :   0.9684 B( 17-C , 18-N ) :   1.0220
B( 17-C , 30-H ) :   0.9440 B( 17-C , 31-H ) :   0.9398 B( 18-N , 19-H ) :   0.9254
B( 18-N , 20-C ) :   1.0105 B( 20-C , 21-C ) :   1.0704 B( 20-C , 25-C ) :   1.0404
B( 20-C , 29-H ) :   0.9388 B( 21-C , 22-H ) :   0.9712 B( 21-C , 23-H ) :   0.9708
B( 21-C , 24-H ) :   0.9659 B( 25-C , 26-H ) :   0.9663 B( 25-C , 27-H ) :   0.9683
B( 25-C , 28-H ) :   0.9666

Dispersion correction           -0.018135680
FINAL SINGLE POINT ENERGY      -602.933961475246

DIPOLE MOMENT
-------------
                                X             Y             Z
Electronic contribution:     -2.77270       5.69583       2.07104
Nuclear contribution   :      3.25924      -5.87538      -1.96473
                        -----------------------------------------
Total Dipole Moment    :      0.48654      -0.17955       0.10631
                        -----------------------------------------
Magnitude (a.u.)       :      0.52940
Magnitude (Debye)      :      1.34562

Rotational constants in cm-1:     0.019111     0.015125     0.010191
Rotational constants in MHz :   572.941549   453.442811   305.508800

                             ****ORCA TERMINATED NORMALLY****
TOTAL RUN TIME: 0 days 1 hours 18 minutes 59 seconds 527 msec
