                         Program Version 4.2.0 -  RELEASE  -
|  1> # ORCA input file
|  2> # -30.14274789
|  3> ! wB97X-D3 def2-SVP Opt
|  4> * xyz 0 1
|  5>    C       -2.62460        -0.56520         0.65810
|  6>    N       -1.63050        -0.72640        -0.39320
|  7>    C       -0.36000        -0.17300        -0.15650
|  8>    C        0.77860        -0.96320        -0.05130
|  9>    C        2.04680        -0.44950         0.13530
| 10>    C        2.18830         0.92260         0.23420
| 11>    C        1.08480         1.74620         0.10700
| 12>    C       -0.18620         1.22310        -0.10810
| 13>    N       -1.29200         2.05080        -0.23360
| 14>    H       -1.07090         3.00990        -0.45530
| 15>    H       -2.02180         1.66140        -0.81280
| 16>    H        1.20300         2.81910         0.15620
| 17>    H        3.16470         1.35250         0.39400
| 18>    H        2.88830        -1.11830         0.21030
| 19>    F        0.62430        -2.31360        -0.14180
| 20>    H       -1.54270        -1.70850        -0.63680
| 21>    H       -2.64130         0.47100         0.98760
| 22>    H       -2.42250        -1.19910         1.53060
| 23>    H       -3.60150        -0.83040         0.25370
| 24> *
| 25>
| 26>                          ****END OF INPUT****
 Total Charge           Charge          ....    0
 Multiplicity           Mult            ....    1
 Number of Electrons    NEL             ....   74
Dispersion correction           -0.005936640
FINAL SINGLE POINT ENERGY      -481.022457563701
Dispersion correction            ... done
Dispersion correction           -0.005991886
FINAL SINGLE POINT ENERGY      -481.024205072380
Dispersion correction            ... done
Dispersion correction           -0.006000277
FINAL SINGLE POINT ENERGY      -481.024608027178
Dispersion correction            ... done
FINAL SINGLE POINT ENERGY      -481.024901815667
FINAL SINGLE POINT ENERGY      -481.025040481128
FINAL SINGLE POINT ENERGY      -481.025068742639
Dispersion correction            ... done
Dispersion correction           -0.006093005
FINAL SINGLE POINT ENERGY      -481.025078221014
Dispersion correction            ... done
Dispersion correction           -0.006093464
FINAL SINGLE POINT ENERGY      -481.025079569610
Dispersion correction            ... done
                    ***********************HURRAY********************

CARTESIAN COORDINATES (ANGSTROEM)
---------------------------------
  C     -2.558716   -0.648017    0.718481
  N     -1.683371   -0.617177   -0.449215
  C     -0.382952   -0.115990   -0.205833
  C      0.718950   -0.949515   -0.030360
  C      2.003742   -0.474577    0.195127
  C      2.181474    0.904816    0.270996
  C      1.107953    1.775247    0.102991
  C     -0.179085    1.280116   -0.150601
  N     -1.278896    2.102815   -0.321263
  H     -1.075503    3.051280   -0.609109
  H     -2.013767    1.658646   -0.866062
  H      1.264959    2.855974    0.154096
  H      3.178691    1.310997    0.456961
  H      2.826336   -1.180913    0.314993
  F      0.509437   -2.274641   -0.104557
  H     -1.625330   -1.538924   -0.871220
  H     -2.669162    0.369040    1.122307
  H     -2.184029   -1.298018    1.531463
  H     -3.555932   -1.001760    0.418403

 Multiplicity           Mult            ....    1
 Number of Electrons    NEL             ....   74
 Basis Dimension        Dim             ....  185

ORBITAL ENERGIES
----------------

  NO   OCC          E(Eh)            E(eV)
   0   2.0000     -24.797586      -674.7766
   1   2.0000     -14.434913      -392.7940
   2   2.0000     -14.430997      -392.6874
   3   2.0000     -10.365931      -282.0713
   4   2.0000     -10.331257      -281.1278
   5   2.0000     -10.314058      -280.6598
   6   2.0000     -10.310936      -280.5748
   7   2.0000     -10.294062      -280.1157
   8   2.0000     -10.283539      -279.8293
   9   2.0000     -10.282543      -279.8022
  10   2.0000      -1.319978       -35.9184
  11   2.0000      -1.050256       -28.5789
  12   2.0000      -1.006688       -27.3934
  13   2.0000      -0.948108       -25.7993
  14   2.0000      -0.847892       -23.0723
  15   2.0000      -0.835661       -22.7395
  16   2.0000      -0.773368       -21.0444
  17   2.0000      -0.724819       -19.7233
  18   2.0000      -0.704430       -19.1685
  19   2.0000      -0.653612       -17.7857
  20   2.0000      -0.627445       -17.0737
  21   2.0000      -0.609027       -16.5725
  22   2.0000      -0.577090       -15.7034
  23   2.0000      -0.570616       -15.5273
  24   2.0000      -0.560252       -15.2452
  25   2.0000      -0.552121       -15.0240
  26   2.0000      -0.539581       -14.6827
  27   2.0000      -0.519863       -14.1462
  28   2.0000      -0.493780       -13.4364
  29   2.0000      -0.485962       -13.2237
  30   2.0000      -0.474954       -12.9241
  31   2.0000      -0.462982       -12.5984
  32   2.0000      -0.445684       -12.1277
  33   2.0000      -0.406408       -11.0589
  34   2.0000      -0.362039        -9.8516
  35   2.0000      -0.310670        -8.4538
  36   2.0000      -0.284564        -7.7434
  37   0.0000       0.077965         2.1215
  38   0.0000       0.089814         2.4440
  39   0.0000       0.145786         3.9670
  40   0.0000       0.155158         4.2221
  41   0.0000       0.175167         4.7665

MULLIKEN ATOMIC CHARGES
-----------------------
   0 C :    0.061062
   1 N :   -0.246400
   2 C :   -0.074944
   3 C :    0.242441
   4 C :   -0.108495
   5 C :    0.003060
   6 C :   -0.090166
   7 C :    0.027516
   8 N :   -0.121529
   9 H :    0.121543
  10 H :    0.135572
  11 H :   -0.011569
  12 H :    0.020828
  13 H :    0.018163
  14 F :   -0.215475
  15 H :    0.126032
  16 H :    0.044585
  17 H :    0.028421
  18 H :    0.039353
Sum of atomic charges:   -0.0000000

LOEWDIN ATOMIC CHARGES
----------------------
   0 C :    0.010202
   1 N :   -0.094054
   2 C :   -0.062266
   3 C :    0.073004
   4 C :   -0.095783
   5 C :   -0.018633
   6 C :   -0.086858
   7 C :    0.024978
   8 N :   -0.044286
   9 H :    0.072872
  10 H :    0.073051
  11 H :    0.027980
  12 H :    0.033882
  13 H :    0.037827
  14 F :   -0.077750
  15 H :    0.066774
  16 H :    0.024749
  17 H :    0.011603
  18 H :    0.022707

  Mayer bond orders larger than 0.100000
B(  0-C ,  1-N ) :   0.9895 B(  0-C , 16-H ) :   0.9742 B(  0-C , 17-H ) :   0.9693
B(  0-C , 18-H ) :   0.9813 B(  1-N ,  2-C ) :   1.1363 B(  1-N , 15-H ) :   0.9374
B(  2-C ,  3-C ) :   1.3614 B(  2-C ,  7-C ) :   1.3545 B(  3-C ,  4-C ) :   1.3580
B(  3-C , 14-F ) :   1.0710 B(  4-C ,  5-C ) :   1.3507 B(  4-C , 13-H ) :   0.9980
B(  5-C ,  6-C ) :   1.3816 B(  5-C , 12-H ) :   0.9876 B(  6-C ,  7-C ) :   1.3392
B(  6-C , 11-H ) :   1.0041 B(  7-C ,  8-N ) :   1.2356 B(  8-N ,  9-H ) :   0.9452
B(  8-N , 10-H ) :   0.9262

Dispersion correction           -0.006093662
FINAL SINGLE POINT ENERGY      -481.025080382626

DIPOLE MOMENT
-------------
                                X             Y             Z
Electronic contribution:      5.44924      -5.40287      -1.86591
Nuclear contribution   :     -5.81975       5.91208       1.65813
                        -----------------------------------------
Total Dipole Moment    :     -0.37051       0.50922      -0.20778
                        -----------------------------------------
Magnitude (a.u.)       :      0.66314
Magnitude (Debye)      :      1.68556

Rotational constants in cm-1:     0.056480     0.048638     0.027736
Rotational constants in MHz :  1693.242700  1458.141049   831.506644

                             ****ORCA TERMINATED NORMALLY****
TOTAL RUN TIME: 0 days 0 hours 14 minutes 58 seconds 812 msec
