                         Program Version 4.2.0 -  RELEASE  -
|  1> # ORCA input file
|  2> # -45.29957047
|  3> ! wB97X-D3 def2-SVP Opt
|  4> * xyz 0 2
|  5>    C        3.50550         0.26550         0.00130
|  6>    C        2.91720        -0.97030         0.00150
|  7>    C        1.50300        -1.12350         0.00030
|  8>    C        0.94920        -2.39830        -0.00060
|  9>    O       -0.35540        -2.67540        -0.00190
| 10>    H        1.58200        -3.27370        -0.00030
| 11>    C        0.70220         0.06560        -0.00040
| 12>    C        1.34730         1.28660        -0.00070
| 13>    C        2.72750         1.42090        -0.00010
| 14>    H        3.16580         2.40480        -0.00060
| 15>    F        0.60660         2.42630        -0.00180
| 16>    N       -0.72600        -0.07280        -0.00010
| 17>    C       -1.37660         0.44090         1.20400
| 18>    H       -0.85920         0.03460         2.07670
| 19>    C       -2.84310        -0.01110         1.19240
| 20>    H       -3.35940         0.38180         2.07010
| 21>    N       -3.54870         0.42170         0.00090
| 22>    H       -0.82510        -1.79430        -0.00180
| 23>    H       -3.62160         1.43600         0.00040
| 24>    C       -2.84370        -0.01210        -1.19060
| 25>    H       -3.36130         0.37860        -2.06850
| 26>    C       -1.37790         0.44160        -1.20340
| 27>    H       -0.86060         0.03690        -2.07680
| 28>    H       -1.33650         1.54090        -1.25090
| 29>    H       -2.88710        -1.10540        -1.21800
| 30>    H       -2.88760        -1.10420         1.22160
| 31>    H       -1.33390         1.54010         1.25280
| 32>    H        3.52220        -1.86390         0.00270
| 33>    H        4.58120         0.35440         0.00220
| 34> *
| 35>
| 36>                          ****END OF INPUT****
 Total Charge           Charge          ....    0
 Multiplicity           Mult            ....    2
 Number of Electrons    NEL             ....  111
Dispersion correction           -0.013447841
FINAL SINGLE POINT ENERGY      -711.414289798842
Dispersion correction            ... done
Dispersion correction           -0.013356576
FINAL SINGLE POINT ENERGY      -711.417028410488
Dispersion correction            ... done
Dispersion correction           -0.013439975
FINAL SINGLE POINT ENERGY      -711.417393869245
Dispersion correction            ... done
FINAL SINGLE POINT ENERGY      -711.417607592923
FINAL SINGLE POINT ENERGY      -711.417375544544
FINAL SINGLE POINT ENERGY      -711.417670846055
Dispersion correction            ... done
Dispersion correction           -0.013423936
FINAL SINGLE POINT ENERGY      -711.417675232710
Dispersion correction            ... done
Dispersion correction           -0.013425529
FINAL SINGLE POINT ENERGY      -711.417677831680
Dispersion correction            ... done
                    ***********************HURRAY********************

CARTESIAN COORDINATES (ANGSTROEM)
---------------------------------
  C      3.507638    0.292710    0.000062
  C      2.933919   -0.962667    0.000436
  C      1.517934   -1.131670    0.000473
  C      0.969431   -2.432459    0.000812
  O     -0.332239   -2.695548    0.000820
  H      1.618054   -3.313325    0.001079
  C      0.702795    0.046090    0.000287
  C      1.330872    1.288700   -0.000140
  C      2.711265    1.447242   -0.000292
  H      3.134036    2.452739   -0.000704
  F      0.563232    2.392021   -0.000863
  N     -0.728474   -0.081647    0.000403
  C     -1.380842    0.403379    1.224157
  H     -0.876544   -0.059803    2.086277
  C     -2.861554    0.026850    1.201227
  H     -3.366383    0.444212    2.085801
  N     -3.550258    0.464685    0.000545
  H     -0.775346   -1.802375    0.000440
  H     -3.641648    1.478912    0.000724
  C     -2.861603    0.027270   -1.200317
  H     -3.366442    0.444968   -2.084728
  C     -1.380875    0.403752   -1.223163
  H     -0.876612   -0.059162   -2.085447
  H     -1.269381    1.501278   -1.319955
  H     -2.954306   -1.071537   -1.270917
  H     -2.954226   -1.071986    1.271426
  H     -1.269407    1.500857    1.321320
  H      3.567061   -1.853799    0.000663
  H      4.595903    0.392513   -0.000028

 Multiplicity           Mult            ....    2
 Number of Electrons    NEL             ....  111
 Basis Dimension        Dim             ....  280

ORBITAL ENERGIES
----------------
                 SPIN UP ORBITALS
  NO   OCC          E(Eh)            E(eV)
   0   1.0000     -24.807840      -675.0556
   1   1.0000     -19.257127      -524.0131
   2   1.0000     -14.456718      -393.3873
   3   1.0000     -14.419512      -392.3749
   4   1.0000     -10.376323      -282.3541
   5   1.0000     -10.344158      -281.4788
   6   1.0000     -10.329074      -281.0684
   7   1.0000     -10.321179      -280.8535
   8   1.0000     -10.321151      -280.8528
   9   1.0000     -10.317173      -280.7446
  10   1.0000     -10.317165      -280.7443
  11   1.0000     -10.305770      -280.4342
  12   1.0000     -10.300837      -280.3000
  13   1.0000     -10.295826      -280.1637
  14   1.0000     -10.294327      -280.1229
  15   1.0000      -1.329614       -36.1806
  16   1.0000      -1.164401       -31.6850
  17   1.0000      -1.073831       -29.2204
  18   1.0000      -1.017403       -27.6849
  19   1.0000      -0.969692       -26.3867
  20   1.0000      -0.885248       -24.0888
  21   1.0000      -0.883195       -24.0330
  22   1.0000      -0.862705       -23.4754
  23   1.0000      -0.798612       -21.7313
  24   1.0000      -0.769365       -20.9355
  25   1.0000      -0.758119       -20.6295
  26   1.0000      -0.730717       -19.8838
  27   1.0000      -0.712089       -19.3769
  28   1.0000      -0.691737       -18.8231
  29   1.0000      -0.659293       -17.9403
  30   1.0000      -0.631868       -17.1940
  31   1.0000      -0.616545       -16.7770
  32   1.0000      -0.586801       -15.9677
  33   1.0000      -0.582239       -15.8435
  34   1.0000      -0.578435       -15.7400
  35   1.0000      -0.574732       -15.6392
  36   1.0000      -0.566679       -15.4201
  37   1.0000      -0.558967       -15.2103
  38   1.0000      -0.550687       -14.9849
  39   1.0000      -0.543871       -14.7995
  40   1.0000      -0.520468       -14.1627
  41   1.0000      -0.515751       -14.0343
  42   1.0000      -0.500516       -13.6197
  43   1.0000      -0.496494       -13.5103
  44   1.0000      -0.481138       -13.0924
  45   1.0000      -0.464263       -12.6332
  46   1.0000      -0.463295       -12.6069
  47   1.0000      -0.456949       -12.4342
  48   1.0000      -0.453947       -12.3525
  49   1.0000      -0.446791       -12.1578
  50   1.0000      -0.442412       -12.0386
  51   1.0000      -0.367855       -10.0098
  52   1.0000      -0.346390        -9.4257
  53   1.0000      -0.343174        -9.3382
  54   1.0000      -0.316188        -8.6039
  55   1.0000      -0.233333        -6.3493
  56   0.0000       0.067967         1.8495
  57   0.0000       0.096474         2.6252
  58   0.0000       0.132501         3.6055
  59   0.0000       0.154251         4.1974
  60   0.0000       0.157684         4.2908

                 SPIN DOWN ORBITALS
  NO   OCC          E(Eh)            E(eV)
   0   1.0000     -24.808242      -675.0666
   1   1.0000     -19.253430      -523.9125
   2   1.0000     -14.456945      -393.3935
   3   1.0000     -14.419514      -392.3749
   4   1.0000     -10.377934      -282.3980
   5   1.0000     -10.338227      -281.3175
   6   1.0000     -10.326300      -280.9929
   7   1.0000     -10.321006      -280.8489
   8   1.0000     -10.320978      -280.8481
   9   1.0000     -10.317150      -280.7439
  10   1.0000     -10.317142      -280.7437
  11   1.0000     -10.307467      -280.4804
  12   1.0000     -10.302142      -280.3355
  13   1.0000     -10.293626      -280.1038
  14   1.0000     -10.291655      -280.0502
  15   1.0000      -1.330760       -36.2118
  16   1.0000      -1.153087       -31.3771
  17   1.0000      -1.072336       -29.1797
  18   1.0000      -1.016332       -27.6558
  19   1.0000      -0.966977       -26.3128
  20   1.0000      -0.882824       -24.0229
  21   1.0000      -0.878731       -23.9115
  22   1.0000      -0.859221       -23.3806
  23   1.0000      -0.793246       -21.5853
  24   1.0000      -0.758512       -20.6402
  25   1.0000      -0.757396       -20.6098
  26   1.0000      -0.727379       -19.7930
  27   1.0000      -0.708549       -19.2806
  28   1.0000      -0.691142       -18.8069
  29   1.0000      -0.658294       -17.9131
  30   1.0000      -0.629748       -17.1363
  31   1.0000      -0.613547       -16.6955
  32   1.0000      -0.583413       -15.8755
  33   1.0000      -0.582952       -15.8629
  34   1.0000      -0.577069       -15.7028
  35   1.0000      -0.573403       -15.6031
  36   1.0000      -0.566034       -15.4026
  37   1.0000      -0.556232       -15.1358
  38   1.0000      -0.550353       -14.9759
  39   1.0000      -0.540157       -14.6984
  40   1.0000      -0.519527       -14.1371
  41   1.0000      -0.498624       -13.5683
  42   1.0000      -0.498358       -13.5610
  43   1.0000      -0.483328       -13.1520
  44   1.0000      -0.477690       -12.9986
  45   1.0000      -0.460004       -12.5173
  46   1.0000      -0.456183       -12.4134
  47   1.0000      -0.454711       -12.3733
  48   1.0000      -0.449655       -12.2357
  49   1.0000      -0.442385       -12.0379
  50   1.0000      -0.440707       -11.9922
  51   1.0000      -0.342910        -9.3311
  52   1.0000      -0.342868        -9.3299
  53   1.0000      -0.331972        -9.0334
  54   1.0000      -0.315951        -8.5975
  55   0.0000       0.008854         0.2409
  56   0.0000       0.073912         2.0112
  57   0.0000       0.132744         3.6121
  58   0.0000       0.135571         3.6891
  59   0.0000       0.155005         4.2179

MULLIKEN ATOMIC CHARGES AND SPIN POPULATIONS
--------------------------------------------
   0 C :    0.012303   -0.155812
   1 C :   -0.052203    0.249947
   2 C :    0.029333   -0.179836
   3 C :    0.037443    0.570491
   4 O :   -0.213356    0.142180
   5 H :    0.030896   -0.027338
   6 C :    0.001247    0.288665
   7 C :    0.264168   -0.157765
   8 C :   -0.117075    0.303103
   9 H :    0.023687   -0.013871
  10 F :   -0.206005   -0.006833
  11 N :   -0.482885   -0.016969
  12 C :    0.096685    0.005312
  13 H :    0.043390   -0.000500
  14 C :    0.072341    0.001515
  15 H :    0.040308    0.000257
  16 N :   -0.304619   -0.000090
  17 H :    0.196212   -0.003964
  18 H :    0.112159   -0.000009
  19 C :    0.072355    0.001515
  20 H :    0.040304    0.000257
  21 C :    0.096629    0.005308
  22 H :    0.043383   -0.000500
  23 H :    0.028857   -0.000045
  24 H :    0.036336    0.000069
  25 H :    0.036353    0.000069
  26 H :    0.028816   -0.000044
  27 H :    0.007370   -0.010942
  28 H :    0.025567    0.005831
Sum of atomic charges         :   -0.0000000

LOEWDIN ATOMIC CHARGES AND SPIN POPULATIONS
-------------------------------------------
   0 C :   -0.021790   -0.094993
   1 C :   -0.038337    0.186312
   2 C :   -0.074226   -0.091247
   3 C :    0.042167    0.494428
   4 O :   -0.045454    0.155026
   5 H :    0.020614   -0.001493
   6 C :   -0.041731    0.213343
   7 C :    0.080173   -0.096005
   8 C :   -0.085510    0.231323
   9 H :    0.039441   -0.000225
  10 F :   -0.067619   -0.010051
  11 N :   -0.095085   -0.005269
  12 C :    0.014106    0.007259
  13 H :    0.030218    0.000123
  14 C :    0.008701    0.001204
  15 H :    0.029425    0.000244
  16 N :   -0.116029   -0.000042
  17 H :    0.043511    0.001787
  18 H :    0.057671   -0.000006
  19 C :    0.008700    0.001205
  20 H :    0.029425    0.000245
  21 C :    0.014079    0.007254
  22 H :    0.030213    0.000124
  23 H :    0.009483   -0.000033
  24 H :    0.025472    0.000088
  25 H :    0.025479    0.000088
  26 H :    0.009488   -0.000033
  27 H :    0.031478   -0.000962
  28 H :    0.035940    0.000307

  Mayer bond orders larger than 0.100000
B(  0-C ,  1-C ) :   1.4743 B(  0-C ,  8-C ) :   1.2858 B(  0-C , 28-H ) :   0.9874
B(  1-C ,  2-C ) :   1.2214 B(  1-C , 27-H ) :   0.9915 B(  2-C ,  3-C ) :   1.2771
B(  2-C ,  6-C ) :   1.2528 B(  3-C ,  4-O ) :   1.3359 B(  3-C ,  5-H ) :   0.9847
B(  4-O , 17-H ) :   0.8671 B(  6-C ,  7-C ) :   1.3812 B(  6-C , 11-N ) :   0.9748
B(  7-C ,  8-C ) :   1.3561 B(  7-C , 10-F ) :   1.0608 B(  8-C ,  9-H ) :   0.9912
B( 11-N , 12-C ) :   0.9227 B( 11-N , 17-H ) :   0.1608 B( 11-N , 21-C ) :   0.9227
B( 12-C , 13-H ) :   0.9478 B( 12-C , 14-C ) :   1.0572 B( 12-C , 26-H ) :   0.9376
B( 14-C , 15-H ) :   0.9603 B( 14-C , 16-N ) :   1.0590 B( 14-C , 25-H ) :   0.9462
B( 16-N , 18-H ) :   0.9503 B( 16-N , 19-C ) :   1.0590 B( 19-C , 20-H ) :   0.9603
B( 19-C , 21-C ) :   1.0572 B( 19-C , 24-H ) :   0.9462 B( 21-C , 22-H ) :   0.9478
B( 21-C , 23-H ) :   0.9376

Dispersion correction           -0.013424879
FINAL SINGLE POINT ENERGY      -711.417678421123

DIPOLE MOMENT
-------------
                                X             Y             Z
Electronic contribution:      8.60872       3.71139      -0.00280
Nuclear contribution   :     -8.42167      -3.18210       0.00298
                        -----------------------------------------
Total Dipole Moment    :      0.18705       0.52929       0.00018
                        -----------------------------------------
Magnitude (a.u.)       :      0.56137
Magnitude (Debye)      :      1.42688

Rotational constants in cm-1:     0.033444     0.016197     0.012441
Rotational constants in MHz :  1002.624356   485.573750   372.970519

                             ****ORCA TERMINATED NORMALLY****
TOTAL RUN TIME: 0 days 1 hours 6 minutes 35 seconds 646 msec
