                         Program Version 4.2.0 -  RELEASE  -
|  1> # ORCA input file
|  2> # -50.55113560
|  3> ! wB97X-D3 def2-SVP Opt
|  4> * xyz 0 1
|  5>    C       -3.73460        -1.22870        -1.23760
|  6>    C       -3.06360        -0.17840        -0.42980
|  7>    C       -2.06290        -0.25130         0.52400
|  8>    C       -1.84590         1.08490         0.93880
|  9>    N       -2.65460         1.90280         0.28880
| 10>    N       -3.37070         1.13780        -0.53530
| 11>    H       -4.06890         1.55660        -1.12780
| 12>    C       -0.87480         1.57000         1.95600
| 13>    H       -1.11870         1.17200         2.94130
| 14>    H        0.13800         1.25800         1.69810
| 15>    H       -0.91310         2.65420         1.99670
| 16>    N       -1.43460        -1.41480         1.00160
| 17>    H       -0.92530        -1.19860         1.85320
| 18>    C       -0.54770        -2.08290         0.05150
| 19>    C        0.63910        -1.21180        -0.27210
| 20>    C        1.79140        -1.28600         0.50120
| 21>    C        2.82980        -0.40020         0.28640
| 22>    C        2.72400         0.57910        -0.69310
| 23>    C        1.57880         0.66420        -1.46370
| 24>    C        0.54520        -0.22980        -1.25250
| 25>    H       -0.34710        -0.16010        -1.85480
| 26>    H        1.51170         1.43160        -2.21790
| 27>    F        3.73220         1.44450        -0.89900
| 28>    F        3.94170        -0.49240         1.03780
| 29>    H        1.89590        -2.03270         1.27380
| 30>    H       -0.22640        -3.02450         0.50320
| 31>    H       -1.12120        -2.29950        -0.85120
| 32>    H       -3.25460        -1.34690        -2.21110
| 33>    H       -3.68610        -2.17800        -0.71040
| 34>    H       -4.77850        -0.96950        -1.40500
| 35> *
| 36>
| 37>                          ****END OF INPUT****
 Total Charge           Charge          ....    0
 Multiplicity           Mult            ....    1
 Number of Electrons    NEL             ....  124
Dispersion correction           -0.014528175
FINAL SINGLE POINT ENERGY      -828.193700542540
Dispersion correction            ... done
Dispersion correction           -0.014328718
FINAL SINGLE POINT ENERGY      -828.196969278674
Dispersion correction            ... done
Dispersion correction           -0.014501720
FINAL SINGLE POINT ENERGY      -828.197589905351
Dispersion correction            ... done
FINAL SINGLE POINT ENERGY      -828.197924974340
FINAL SINGLE POINT ENERGY      -828.198065284897
FINAL SINGLE POINT ENERGY      -828.198118599455
FINAL SINGLE POINT ENERGY      -828.198140718110
FINAL SINGLE POINT ENERGY      -828.198151856063
FINAL SINGLE POINT ENERGY      -828.198160322530
Dispersion correction            ... done
Dispersion correction           -0.014521726
FINAL SINGLE POINT ENERGY      -828.198166959281
Dispersion correction            ... done
Dispersion correction           -0.014519803
FINAL SINGLE POINT ENERGY      -828.198171703106
Dispersion correction            ... done
                    ***********************HURRAY********************

CARTESIAN COORDINATES (ANGSTROEM)
---------------------------------
  C     -4.022862   -1.280112   -1.056746
  C     -3.232901   -0.207589   -0.388606
  C     -2.134467   -0.302629    0.449579
  C     -1.809221    1.044382    0.789376
  N     -2.648661    1.885907    0.206578
  N     -3.480054    1.120378   -0.505511
  H     -4.219654    1.558686   -1.037432
  C     -0.717104    1.531034    1.687767
  H     -0.816163    1.121978    2.705742
  H      0.275235    1.241450    1.308406
  H     -0.758603    2.625888    1.754126
  N     -1.507273   -1.507129    0.836800
  H     -1.136732   -1.442405    1.780174
  C     -0.503597   -2.041488   -0.080803
  C      0.701839   -1.145921   -0.281715
  C      1.797143   -1.234913    0.585255
  C      2.852319   -0.343291    0.475860
  C      2.832585    0.654831   -0.498211
  C      1.758819    0.750982   -1.369580
  C      0.699995   -0.149161   -1.261311
  H     -0.150062   -0.062457   -1.942550
  H      1.767392    1.539921   -2.124170
  F      3.856155    1.499941   -0.583062
  F      3.896762   -0.428410    1.295797
  H      1.848831   -2.000597    1.364382
  H     -0.182454   -3.023585    0.299973
  H     -0.991203   -2.224076   -1.051366
  H     -3.755059   -1.396322   -2.119415
  H     -3.818129   -2.232365   -0.547919
  H     -5.104378   -1.083328   -1.000319

 Multiplicity           Mult            ....    1
 Number of Electrons    NEL             ....  124
 Basis Dimension        Dim             ....  303

ORBITAL ENERGIES
----------------

  NO   OCC          E(Eh)            E(eV)
   0   2.0000     -24.811028      -675.1424
   1   2.0000     -24.809897      -675.1116
   2   2.0000     -14.494964      -394.4280
   3   2.0000     -14.430736      -392.6803
   4   2.0000     -14.430516      -392.6743
   5   2.0000     -10.386683      -282.6360
   6   2.0000     -10.385257      -282.5972
   7   2.0000     -10.328292      -281.0471
   8   2.0000     -10.320578      -280.8372
   9   2.0000     -10.311643      -280.5941
  10   2.0000     -10.311495      -280.5901
  11   2.0000     -10.310547      -280.5642
  12   2.0000     -10.307463      -280.4803
  13   2.0000     -10.303340      -280.3681
  14   2.0000     -10.299493      -280.2634
  15   2.0000     -10.298139      -280.2266
  16   2.0000     -10.280797      -279.7547
  17   2.0000      -1.344552       -36.5871
  18   2.0000      -1.329143       -36.1678
  19   2.0000      -1.154519       -31.4161
  20   2.0000      -1.031915       -28.0798
  21   2.0000      -0.989018       -26.9126
  22   2.0000      -0.936305       -25.4781
  23   2.0000      -0.899960       -24.4892
  24   2.0000      -0.877686       -23.8831
  25   2.0000      -0.873064       -23.7573
  26   2.0000      -0.817638       -22.2491
  27   2.0000      -0.813670       -22.1411
  28   2.0000      -0.786949       -21.4140
  29   2.0000      -0.750073       -20.4105
  30   2.0000      -0.720908       -19.6169
  31   2.0000      -0.685254       -18.6467
  32   2.0000      -0.671028       -18.2596
  33   2.0000      -0.664038       -18.0694
  34   2.0000      -0.640894       -17.4396
  35   2.0000      -0.631267       -17.1776
  36   2.0000      -0.625322       -17.0159
  37   2.0000      -0.601951       -16.3799
  38   2.0000      -0.582805       -15.8589
  39   2.0000      -0.575499       -15.6601
  40   2.0000      -0.562832       -15.3154
  41   2.0000      -0.561466       -15.2783
  42   2.0000      -0.550682       -14.9848
  43   2.0000      -0.543568       -14.7912
  44   2.0000      -0.538457       -14.6521
  45   2.0000      -0.526833       -14.3359
  46   2.0000      -0.518407       -14.1066
  47   2.0000      -0.513847       -13.9825
  48   2.0000      -0.503131       -13.6909
  49   2.0000      -0.491591       -13.3769
  50   2.0000      -0.486975       -13.2513
  51   2.0000      -0.481429       -13.1003
  52   2.0000      -0.465888       -12.6774
  53   2.0000      -0.459986       -12.5168
  54   2.0000      -0.457251       -12.4424
  55   2.0000      -0.451733       -12.2923
  56   2.0000      -0.388060       -10.5596
  57   2.0000      -0.356511        -9.7011
  58   2.0000      -0.354020        -9.6334
  59   2.0000      -0.333855        -9.0847
  60   2.0000      -0.326275        -8.8784
  61   2.0000      -0.297372        -8.0919
  62   0.0000       0.052218         1.4209
  63   0.0000       0.061947         1.6857
  64   0.0000       0.106803         2.9063
  65   0.0000       0.127420         3.4673
  66   0.0000       0.140353         3.8192

MULLIKEN ATOMIC CHARGES
-----------------------
   0 C :    0.056339
   1 C :   -0.067490
   2 C :   -0.131510
   3 C :   -0.127167
   4 N :   -0.123699
   5 N :   -0.078302
   6 H :    0.140188
   7 C :    0.060501
   8 H :    0.035997
   9 H :    0.034091
  10 H :    0.042558
  11 N :   -0.216703
  12 H :    0.118876
  13 C :    0.196686
  14 C :   -0.090916
  15 C :   -0.112558
  16 C :    0.223232
  17 C :    0.213659
  18 C :   -0.086410
  19 C :    0.003450
  20 H :    0.021209
  21 H :    0.037935
  22 F :   -0.187402
  23 F :   -0.188475
  24 H :    0.022952
  25 H :    0.031256
  26 H :    0.024127
  27 H :    0.050918
  28 H :    0.054505
  29 H :    0.042154
Sum of atomic charges:   -0.0000000

LOEWDIN ATOMIC CHARGES
----------------------
   0 C :   -0.065075
   1 C :   -0.031886
   2 C :   -0.087046
   3 C :   -0.066647
   4 N :   -0.118317
   5 N :    0.102773
   6 H :    0.084865
   7 C :   -0.065329
   8 H :    0.032857
   9 H :    0.033301
  10 H :    0.042476
  11 N :   -0.081496
  12 H :    0.065462
  13 C :    0.038226
  14 C :   -0.049756
  15 C :   -0.056201
  16 C :    0.050853
  17 C :    0.047771
  18 C :   -0.046005
  19 C :   -0.024509
  20 H :    0.036427
  21 H :    0.046170
  22 F :   -0.053553
  23 F :   -0.054109
  24 H :    0.040337
  25 H :    0.027556
  26 H :    0.027380
  27 H :    0.037640
  28 H :    0.047487
  29 H :    0.038349

  Mayer bond orders larger than 0.100000
B(  0-C ,  1-C ) :   1.0926 B(  0-C , 27-H ) :   0.9522 B(  0-C , 28-H ) :   0.9445
B(  0-C , 29-H ) :   0.9528 B(  1-C ,  2-C ) :   1.4990 B(  1-C ,  4-N ) :   0.1003
B(  1-C ,  5-N ) :   1.2062 B(  2-C ,  3-C ) :   1.2782 B(  2-C , 11-N ) :   1.1230
B(  3-C ,  4-N ) :   1.6537 B(  3-C ,  7-C ) :   1.0857 B(  4-N ,  5-N ) :   1.1549
B(  5-N ,  6-H ) :   0.9479 B(  7-C ,  8-H ) :   0.9606 B(  7-C ,  9-H ) :   0.9565
B(  7-C , 10-H ) :   0.9472 B( 11-N , 12-H ) :   0.9366 B( 11-N , 13-C ) :   1.0599
B( 13-C , 14-C ) :   0.9940 B( 13-C , 25-H ) :   0.9548 B( 13-C , 26-H ) :   0.9476
B( 14-C , 15-C ) :   1.3454 B( 14-C , 19-C ) :   1.4114 B( 15-C , 16-C ) :   1.3763
B( 15-C , 18-C ) :   0.1016 B( 15-C , 24-H ) :   0.9932 B( 16-C , 17-C ) :   1.2926
B( 16-C , 23-F ) :   1.1003 B( 17-C , 18-C ) :   1.3777 B( 17-C , 22-F ) :   1.1044
B( 18-C , 19-C ) :   1.3625 B( 18-C , 21-H ) :   0.9902 B( 19-C , 20-H ) :   0.9925

Dispersion correction           -0.014531632
FINAL SINGLE POINT ENERGY      -828.198172639689

DIPOLE MOMENT
-------------
                                X             Y             Z
Electronic contribution:     22.21103       5.35960       0.98839
Nuclear contribution   :    -23.29171      -6.16988      -1.62562
                        -----------------------------------------
Total Dipole Moment    :     -1.08068      -0.81028      -0.63723
                        -----------------------------------------
Magnitude (a.u.)       :      1.49348
Magnitude (Debye)      :      3.79612

Rotational constants in cm-1:     0.031068     0.009074     0.008384
Rotational constants in MHz :   931.408987   272.028614   251.355908

                             ****ORCA TERMINATED NORMALLY****
TOTAL RUN TIME: 0 days 1 hours 8 minutes 23 seconds 447 msec
