                         Program Version 4.2.0 -  RELEASE  -
|  1> # ORCA input file
|  2> # -47.96059915
|  3> ! wB97X-D3 def2-SVP Opt
|  4> * xyz 0 1
|  5>    C       -4.42710        -0.52300        -0.01440
|  6>    C       -2.92990        -0.40290        -0.01270
|  7>    C       -2.13450        -1.53080        -0.08100
|  8>    C       -0.74770        -1.47530        -0.09250
|  9>    C       -0.13390        -0.22340         0.00970
| 10>    C       -0.91480         0.93400         0.08780
| 11>    C       -2.31110         0.85080         0.05080
| 12>    N       -3.07930         2.00470         0.15950
| 13>    H       -4.02850         1.91200        -0.16490
| 14>    H       -2.63200         2.84660        -0.16560
| 15>    C       -0.26360         2.28080         0.23250
| 16>    H       -0.34890         2.86320        -0.68710
| 17>    H       -0.73100         2.84040         1.04140
| 18>    H        0.78980         2.15030         0.45840
| 19>    N        1.27440        -0.02550         0.04080
| 20>    C        1.94210         0.16610        -1.22820
| 21>    H        1.30650         0.76380        -1.88320
| 22>    C        3.26350         0.89740        -0.97110
| 23>    H        3.85140         0.97410        -1.88760
| 24>    O        4.06870         0.20420        -0.04480
| 25>    C        3.38510         0.01100         1.17400
| 26>    H        4.07370        -0.52990         1.82550
| 27>    C        2.09450        -0.78550         0.95550
| 28>    H        1.56110        -0.90530         1.89950
| 29>    H        2.37820        -1.77680         0.56700
| 30>    H        3.14330         0.98560         1.62490
| 31>    H        3.04990         1.90850        -0.59050
| 32>    H        2.16170        -0.79330        -1.72990
| 33>    C        0.01790        -2.76120        -0.22810
| 34>    H       -0.64160        -3.54630        -0.59250
| 35>    H        0.84230        -2.65960        -0.93010
| 36>    H        0.42000        -3.08190         0.73330
| 37>    H       -2.61390        -2.49820        -0.14690
| 38>    H       -4.85950        -0.04050        -0.89340
| 39>    H       -4.85180        -0.05700         0.87460
| 40>    H       -4.72100        -1.56920        -0.02740
| 41> *
| 42>
| 43>                          ****END OF INPUT****
 Total Charge           Charge          ....    0
 Multiplicity           Mult            ....    1
 Number of Electrons    NEL             ....  120
Dispersion correction           -0.016688072
FINAL SINGLE POINT ENERGY      -691.470960119084
Dispersion correction            ... done
Dispersion correction           -0.016528098
FINAL SINGLE POINT ENERGY      -691.474153885582
Dispersion correction            ... done
Dispersion correction           -0.016566226
FINAL SINGLE POINT ENERGY      -691.474531617321
Dispersion correction            ... done
FINAL SINGLE POINT ENERGY      -691.474712034271
FINAL SINGLE POINT ENERGY      -691.474753483751
FINAL SINGLE POINT ENERGY      -691.474766243112
Dispersion correction            ... done
Dispersion correction           -0.016581403
FINAL SINGLE POINT ENERGY      -691.474775019846
Dispersion correction            ... done
Dispersion correction           -0.016581076
FINAL SINGLE POINT ENERGY      -691.474778500827
Dispersion correction            ... done
                    ***********************HURRAY********************

CARTESIAN COORDINATES (ANGSTROEM)
---------------------------------
  C     -4.445647   -0.528091   -0.029158
  C     -2.944487   -0.413004   -0.021276
  C     -2.131442   -1.538931   -0.107779
  C     -0.737066   -1.473437   -0.109112
  C     -0.133874   -0.207662    0.014806
  C     -0.927368    0.953268    0.110429
  C     -2.331221    0.849670    0.070143
  N     -3.114473    1.997032    0.188305
  H     -4.067372    1.908545   -0.139331
  H     -2.685950    2.854531   -0.134352
  C     -0.306411    2.314721    0.273390
  H     -0.403687    2.927374   -0.641541
  H     -0.789269    2.869951    1.094079
  H      0.762175    2.216207    0.497253
  N      1.282783   -0.039783    0.029849
  C      1.952770    0.142826   -1.242300
  H      1.329154    0.776993   -1.891736
  C      3.303778    0.809324   -1.016286
  H      3.883675    0.840983   -1.950724
  O      4.073997    0.102783   -0.076990
  C      3.419073    0.000692    1.163516
  H      4.091258   -0.551850    1.836620
  C      2.088491   -0.725806    1.018102
  H      1.553681   -0.730810    1.980874
  H      2.307494   -1.779731    0.747818
  H      3.247151    1.010457    1.590091
  H      3.144755    1.851789   -0.670235
  H      2.112950   -0.819530   -1.777259
  C      0.062409   -2.745409   -0.256741
  H     -0.559276   -3.540566   -0.692460
  H      0.935219   -2.609434   -0.910642
  H      0.435772   -3.116468    0.711448
  H     -2.609808   -2.519960   -0.199762
  H     -4.894063   -0.015360   -0.899084
  H     -4.889419   -0.084357    0.878123
  H     -4.761755   -1.579056   -0.074778

 Multiplicity           Mult            ....    1
 Number of Electrons    NEL             ....  120
 Basis Dimension        Dim             ....  324

ORBITAL ENERGIES
----------------

  NO   OCC          E(Eh)            E(eV)
   0   2.0000     -19.235366      -523.4209
   1   2.0000     -14.432056      -392.7162
   2   2.0000     -14.419404      -392.3719
   3   2.0000     -10.328013      -281.0395
   4   2.0000     -10.327221      -281.0180
   5   2.0000     -10.316550      -280.7276
   6   2.0000     -10.311096      -280.5792
   7   2.0000     -10.308399      -280.5058
   8   2.0000     -10.308372      -280.5051
   9   2.0000     -10.288699      -279.9697
  10   2.0000     -10.282488      -279.8007
  11   2.0000     -10.280994      -279.7601
  12   2.0000     -10.279808      -279.7278
  13   2.0000     -10.279310      -279.7142
  14   2.0000     -10.278506      -279.6924
  15   2.0000     -10.276337      -279.6333
  16   2.0000      -1.146623       -31.2012
  17   2.0000      -1.039034       -28.2735
  18   2.0000      -1.022981       -27.8367
  19   2.0000      -0.941063       -25.6076
  20   2.0000      -0.886260       -24.1164
  21   2.0000      -0.880374       -23.9562
  22   2.0000      -0.869310       -23.6551
  23   2.0000      -0.812622       -22.1126
  24   2.0000      -0.803240       -21.8573
  25   2.0000      -0.770739       -20.9729
  26   2.0000      -0.758330       -20.6352
  27   2.0000      -0.748678       -20.3726
  28   2.0000      -0.684621       -18.6295
  29   2.0000      -0.674024       -18.3411
  30   2.0000      -0.657950       -17.9037
  31   2.0000      -0.631325       -17.1792
  32   2.0000      -0.619711       -16.8632
  33   2.0000      -0.575975       -15.6731
  34   2.0000      -0.571954       -15.5637
  35   2.0000      -0.564581       -15.3630
  36   2.0000      -0.562711       -15.3121
  37   2.0000      -0.552150       -15.0248
  38   2.0000      -0.534629       -14.5480
  39   2.0000      -0.527664       -14.3585
  40   2.0000      -0.515115       -14.0170
  41   2.0000      -0.513584       -13.9753
  42   2.0000      -0.508424       -13.8349
  43   2.0000      -0.505100       -13.7445
  44   2.0000      -0.495184       -13.4746
  45   2.0000      -0.490928       -13.3588
  46   2.0000      -0.486568       -13.2402
  47   2.0000      -0.480414       -13.0727
  48   2.0000      -0.455569       -12.3967
  49   2.0000      -0.451992       -12.2993
  50   2.0000      -0.445863       -12.1325
  51   2.0000      -0.441419       -12.0116
  52   2.0000      -0.430615       -11.7176
  53   2.0000      -0.426359       -11.6018
  54   2.0000      -0.396076       -10.7778
  55   2.0000      -0.391854       -10.6629
  56   2.0000      -0.352510        -9.5923
  57   2.0000      -0.318196        -8.6586
  58   2.0000      -0.290465        -7.9039
  59   2.0000      -0.273165        -7.4332
  60   0.0000       0.080962         2.2031
  61   0.0000       0.093140         2.5345
  62   0.0000       0.131888         3.5888
  63   0.0000       0.146381         3.9832
  64   0.0000       0.152766         4.1570

MULLIKEN ATOMIC CHARGES
-----------------------
   0 C :    0.008613
   1 C :   -0.082074
   2 C :   -0.124108
   3 C :   -0.087943
   4 C :    0.024967
   5 C :   -0.116215
   6 C :   -0.034409
   7 N :   -0.134581
   8 H :    0.112999
   9 H :    0.118294
  10 C :    0.028465
  11 H :    0.035324
  12 H :    0.042028
  13 H :    0.027779
  14 N :   -0.433827
  15 C :    0.101031
  16 H :    0.032487
  17 C :    0.196128
  18 H :    0.033790
  19 O :   -0.409873
  20 C :    0.194666
  21 H :    0.031664
  22 C :    0.099950
  23 H :    0.038719
  24 H :    0.004663
  25 H :    0.006442
  26 H :    0.007016
  27 H :    0.014658
  28 C :    0.060832
  29 H :    0.025750
  30 H :    0.031070
  31 H :    0.044888
  32 H :   -0.022727
  33 H :    0.041300
  34 H :    0.051555
  35 H :    0.030679
Sum of atomic charges:   -0.0000000

LOEWDIN ATOMIC CHARGES
----------------------
   0 C :   -0.061133
   1 C :   -0.069896
   2 C :   -0.035358
   3 C :   -0.066055
   4 C :    0.009355
   5 C :   -0.066350
   6 C :    0.019280
   7 N :   -0.049132
   8 H :    0.068023
   9 H :    0.069002
  10 C :   -0.066404
  11 H :    0.027643
  12 H :    0.031655
  13 H :    0.028434
  14 N :   -0.118948
  15 C :    0.018636
  16 H :    0.028533
  17 C :    0.063383
  18 H :    0.024654
  19 O :   -0.175735
  20 C :    0.065530
  21 H :    0.023426
  22 C :    0.015041
  23 H :    0.031561
  24 H :    0.004777
  25 H :    0.006353
  26 H :    0.006488
  27 H :    0.005861
  28 C :   -0.053897
  29 H :    0.031081
  30 H :    0.029223
  31 H :    0.032350
  32 H :    0.023992
  33 H :    0.029166
  34 H :    0.034824
  35 H :    0.034637

  Mayer bond orders larger than 0.100000
B(  0-C ,  1-C ) :   1.0452 B(  0-C , 33-H ) :   0.9590 B(  0-C , 34-H ) :   0.9588
B(  0-C , 35-H ) :   0.9563 B(  1-C ,  2-C ) :   1.3961 B(  1-C ,  6-C ) :   1.3653
B(  2-C ,  3-C ) :   1.3563 B(  2-C , 32-H ) :   0.9880 B(  3-C ,  4-C ) :   1.4037
B(  3-C , 28-C ) :   1.0523 B(  4-C ,  5-C ) :   1.4496 B(  4-C , 14-N ) :   1.0311
B(  5-C ,  6-C ) :   1.3462 B(  5-C , 10-C ) :   1.0768 B(  6-C ,  7-N ) :   1.2208
B(  7-N ,  8-H ) :   0.9427 B(  7-N ,  9-H ) :   0.9412 B( 10-C , 11-H ) :   0.9551
B( 10-C , 12-H ) :   0.9515 B( 10-C , 13-H ) :   0.9309 B( 14-N , 15-C ) :   0.9629
B( 14-N , 22-C ) :   0.9733 B( 15-C , 16-H ) :   0.9467 B( 15-C , 17-C ) :   1.0804
B( 15-C , 27-H ) :   0.9230 B( 17-C , 18-H ) :   0.9562 B( 17-C , 19-O ) :   0.9981
B( 17-C , 26-H ) :   0.9356 B( 19-O , 20-C ) :   0.9964 B( 20-C , 21-H ) :   0.9569
B( 20-C , 22-C ) :   1.0839 B( 20-C , 25-H ) :   0.9351 B( 22-C , 23-H ) :   0.9488
B( 22-C , 24-H ) :   0.9169 B( 28-C , 29-H ) :   0.9541 B( 28-C , 30-H ) :   0.9601
B( 28-C , 31-H ) :   0.9501

Dispersion correction           -0.016579425
FINAL SINGLE POINT ENERGY      -691.474780837557

DIPOLE MOMENT
-------------
                                X             Y             Z
Electronic contribution:      0.90301       0.33936       0.26517
Nuclear contribution   :     -1.69615       0.08124      -0.57019
                        -----------------------------------------
Total Dipole Moment    :     -0.79313       0.42060      -0.30501
                        -----------------------------------------
Magnitude (a.u.)       :      0.94815
Magnitude (Debye)      :      2.41002

Rotational constants in cm-1:     0.035335     0.010985     0.009196
Rotational constants in MHz :  1059.306207   329.320994   275.676681

                             ****ORCA TERMINATED NORMALLY****
TOTAL RUN TIME: 0 days 1 hours 4 minutes 42 seconds 694 msec
