                         Program Version 4.2.0 -  RELEASE  -
|  1> # ORCA input file
|  2> # -44.16662223
|  3> ! wB97X-D3 def2-SVP Opt
|  4> * xyz 0 1
|  5>    C       -0.14500        -2.82680        -0.26340
|  6>    C       -0.96410        -1.57620        -0.11370
|  7>    C       -2.34740        -1.68260        -0.08730
|  8>    C       -3.16050        -0.56760        -0.00440
|  9>    C       -2.60750         0.70070         0.06370
| 10>    C       -1.21190         0.82740         0.08890
| 11>    C       -0.39220        -0.30470        -0.00610
| 12>    N        1.00390        -0.02430         0.03500
| 13>    C        1.84570        -0.75840         0.95120
| 14>    C        3.07270         0.09880         1.26910
| 15>    C        3.83080         0.40000        -0.02110
| 16>    C        2.89650         1.07340        -1.02300
| 17>    C        1.64990         0.21470        -1.23860
| 18>    H        0.94280         0.72980        -1.89230
| 19>    H        1.94700        -0.72960        -1.73040
| 20>    H        3.40610         1.22560        -1.97620
| 21>    H        2.59570         2.05040        -0.63930
| 22>    H        4.69020         1.04150         0.18420
| 23>    H        4.20380        -0.53550        -0.44590
| 24>    H        3.71700        -0.42750         1.97560
| 25>    H        2.75000         1.03400         1.73090
| 26>    H        1.27480        -0.96040         1.86050
| 27>    H        2.19820        -1.71800         0.53780
| 28>    N       -0.63080         2.09760         0.15130
| 29>    H        0.35490         2.01160         0.37320
| 30>    H       -1.11420         2.72180         0.78300
| 31>    N       -3.40230         1.84690         0.19040
| 32>    H       -3.03500         2.64280        -0.31260
| 33>    H       -4.37320         1.67930        -0.03280
| 34>    H       -4.23580        -0.67890        -0.00390
| 35>    H       -2.80180        -2.66060        -0.15690
| 36>    H        0.27930        -3.13570         0.69230
| 37>    H        0.66880        -2.68210        -0.97040
| 38>    H       -0.77230        -3.63760        -0.62830
| 39> *
| 40>
| 41>                          ****END OF INPUT****
 Total Charge           Charge          ....    0
 Multiplicity           Mult            ....    1
 Number of Electrons    NEL             ....  112
Dispersion correction           -0.015554071
FINAL SINGLE POINT ENERGY      -632.371388298271
Dispersion correction            ... done
Dispersion correction           -0.015500568
FINAL SINGLE POINT ENERGY      -632.374608073343
Dispersion correction            ... done
Dispersion correction           -0.015521826
FINAL SINGLE POINT ENERGY      -632.375071726676
Dispersion correction            ... done
FINAL SINGLE POINT ENERGY      -632.375265107888
FINAL SINGLE POINT ENERGY      -632.375299058849
FINAL SINGLE POINT ENERGY      -632.375312696997
Dispersion correction            ... done
Dispersion correction           -0.015553114
FINAL SINGLE POINT ENERGY      -632.375318516387
Dispersion correction            ... done
Dispersion correction           -0.015550529
FINAL SINGLE POINT ENERGY      -632.375321012184
Dispersion correction            ... done
                    ***********************HURRAY********************

CARTESIAN COORDINATES (ANGSTROEM)
---------------------------------
  C     -0.111282   -2.811950   -0.299005
  C     -0.965997   -1.578442   -0.140284
  C     -2.356217   -1.694216   -0.135646
  C     -3.180901   -0.574136   -0.032156
  C     -2.633806    0.699650    0.081718
  C     -1.231250    0.834243    0.127024
  C     -0.401583   -0.294393    0.003953
  N      1.001698   -0.029980    0.031549
  C      1.834058   -0.692811    1.018328
  C      3.101815    0.120365    1.270457
  C      3.850225    0.368730   -0.039463
  C      2.928459    1.009871   -1.076702
  C      1.646590    0.198843   -1.251878
  H      0.939586    0.737837   -1.900625
  H      1.887550   -0.759057   -1.766930
  H      3.440662    1.108077   -2.047566
  H      2.660004    2.030589   -0.752371
  H      4.738476    0.997669    0.132509
  H      4.222319   -0.595727   -0.430905
  H      3.745094   -0.408719    1.992348
  H      2.823759    1.085786    1.728085
  H      1.251108   -0.803248    1.945811
  H      2.134410   -1.715077    0.701832
  N     -0.686002    2.112459    0.241661
  H      0.299326    2.049685    0.487925
  H     -1.207767    2.697350    0.889997
  N     -3.400555    1.868618    0.216076
  H     -3.062487    2.616165   -0.386486
  H     -4.391275    1.719565    0.061056
  H     -4.268419   -0.692613   -0.061500
  H     -2.810183   -2.683449   -0.243400
  H      0.292071   -3.160878    0.665268
  H      0.745129   -2.634562   -0.965458
  H     -0.700517   -3.636444   -0.724718

 Multiplicity           Mult            ....    1
 Number of Electrons    NEL             ....  112
 Basis Dimension        Dim             ....  305

ORBITAL ENERGIES
----------------

  NO   OCC          E(Eh)            E(eV)
   0   2.0000     -14.426405      -392.5624
   1   2.0000     -14.419448      -392.3731
   2   2.0000     -14.418211      -392.3395
   3   2.0000     -10.308597      -280.5112
   4   2.0000     -10.308145      -280.4989
   5   2.0000     -10.307931      -280.4931
   6   2.0000     -10.306610      -280.4571
   7   2.0000     -10.300479      -280.2903
   8   2.0000     -10.283304      -279.8229
   9   2.0000     -10.281759      -279.7809
  10   2.0000     -10.281609      -279.7768
  11   2.0000     -10.278904      -279.7032
  12   2.0000     -10.278265      -279.6858
  13   2.0000     -10.274364      -279.5797
  14   2.0000     -10.268998      -279.4336
  15   2.0000      -1.050867       -28.5955
  16   2.0000      -1.025094       -27.8942
  17   2.0000      -0.982911       -26.7464
  18   2.0000      -0.935713       -25.4621
  19   2.0000      -0.900379       -24.5006
  20   2.0000      -0.862115       -23.4593
  21   2.0000      -0.850103       -23.1325
  22   2.0000      -0.818832       -22.2815
  23   2.0000      -0.774148       -21.0656
  24   2.0000      -0.740463       -20.1490
  25   2.0000      -0.728896       -19.8343
  26   2.0000      -0.696153       -18.9433
  27   2.0000      -0.678637       -18.4667
  28   2.0000      -0.651348       -17.7241
  29   2.0000      -0.625855       -17.0304
  30   2.0000      -0.615177       -16.7398
  31   2.0000      -0.584548       -15.9064
  32   2.0000      -0.568333       -15.4651
  33   2.0000      -0.559425       -15.2227
  34   2.0000      -0.556479       -15.1426
  35   2.0000      -0.544052       -14.8044
  36   2.0000      -0.539763       -14.6877
  37   2.0000      -0.520387       -14.1605
  38   2.0000      -0.512836       -13.9550
  39   2.0000      -0.506992       -13.7960
  40   2.0000      -0.505829       -13.7643
  41   2.0000      -0.501248       -13.6396
  42   2.0000      -0.480766       -13.0823
  43   2.0000      -0.475808       -12.9474
  44   2.0000      -0.466857       -12.7038
  45   2.0000      -0.441688       -12.0189
  46   2.0000      -0.437965       -11.9176
  47   2.0000      -0.436018       -11.8646
  48   2.0000      -0.417428       -11.3588
  49   2.0000      -0.407969       -11.1014
  50   2.0000      -0.405578       -11.0363
  51   2.0000      -0.399587       -10.8733
  52   2.0000      -0.383777       -10.4431
  53   2.0000      -0.311144        -8.4667
  54   2.0000      -0.287553        -7.8247
  55   2.0000      -0.262452        -7.1417
  56   0.0000       0.088819         2.4169
  57   0.0000       0.102200         2.7810
  58   0.0000       0.133235         3.6255
  59   0.0000       0.145228         3.9519
  60   0.0000       0.156858         4.2683

MULLIKEN ATOMIC CHARGES
-----------------------
   0 C :    0.055347
   1 C :   -0.100688
   2 C :   -0.081306
   3 C :   -0.083490
   4 C :    0.007090
   5 C :   -0.031166
   6 C :    0.029545
   7 N :   -0.443240
   8 C :    0.126715
   9 C :   -0.019477
  10 C :   -0.059309
  11 C :   -0.024897
  12 C :    0.123851
  13 H :    0.042393
  14 H :    0.004542
  15 H :    0.030638
  16 H :    0.019787
  17 H :    0.033366
  18 H :    0.014272
  19 H :    0.028908
  20 H :    0.015223
  21 H :    0.035813
  22 H :   -0.007306
  23 N :   -0.110040
  24 H :    0.113388
  25 H :    0.121937
  26 N :   -0.150252
  27 H :    0.128892
  28 H :    0.110461
  29 H :   -0.020050
  30 H :   -0.011423
  31 H :    0.044873
  32 H :    0.030113
  33 H :    0.025491
Sum of atomic charges:   -0.0000000

LOEWDIN ATOMIC CHARGES
----------------------
   0 C :   -0.054166
   1 C :   -0.054068
   2 C :   -0.058546
   3 C :   -0.068256
   4 C :   -0.016461
   5 C :   -0.003795
   6 C :   -0.023781
   7 N :   -0.119116
   8 C :    0.032507
   9 C :   -0.046651
  10 C :   -0.045506
  11 C :   -0.047616
  12 C :    0.034825
  13 H :    0.029192
  14 H :    0.001960
  15 H :    0.027652
  16 H :    0.021573
  17 H :    0.025667
  18 H :    0.020735
  19 H :    0.026237
  20 H :    0.020040
  21 H :    0.027402
  22 H :   -0.000023
  23 N :   -0.064608
  24 H :    0.058477
  25 H :    0.066801
  26 N :   -0.071459
  27 H :    0.069496
  28 H :    0.068449
  29 H :    0.025160
  30 H :    0.024721
  31 H :    0.032843
  32 H :    0.028620
  33 H :    0.031697

  Mayer bond orders larger than 0.100000
B(  0-C ,  1-C ) :   1.0558 B(  0-C , 31-H ) :   0.9507 B(  0-C , 32-H ) :   0.9612
B(  0-C , 33-H ) :   0.9528 B(  1-C ,  2-C ) :   1.3910 B(  1-C ,  6-C ) :   1.4002
B(  2-C ,  3-C ) :   1.3240 B(  2-C , 30-H ) :   0.9924 B(  3-C ,  4-C ) :   1.3771
B(  3-C , 29-H ) :   1.0076 B(  4-C ,  5-C ) :   1.3414 B(  4-C , 26-N ) :   1.1457
B(  5-C ,  6-C ) :   1.4216 B(  5-C , 23-N ) :   1.2399 B(  6-C ,  7-N ) :   1.0202
B(  7-N ,  8-C ) :   0.9714 B(  7-N , 12-C ) :   0.9535 B(  8-C ,  9-C ) :   1.0738
B(  8-C , 21-H ) :   0.9537 B(  8-C , 22-H ) :   0.9274 B(  9-C , 10-C ) :   1.0712
B(  9-C , 19-H ) :   0.9504 B(  9-C , 20-H ) :   0.9426 B( 10-C , 11-C ) :   1.0729
B( 10-C , 17-H ) :   0.9552 B( 10-C , 18-H ) :   0.9448 B( 11-C , 12-C ) :   1.0722
B( 11-C , 15-H ) :   0.9498 B( 11-C , 16-H ) :   0.9444 B( 12-C , 13-H ) :   0.9525
B( 12-C , 14-H ) :   0.9339 B( 23-N , 24-H ) :   0.9103 B( 23-N , 25-H ) :   0.9259
B( 26-N , 27-H ) :   0.9384 B( 26-N , 28-H ) :   0.9478

Dispersion correction           -0.015549968
FINAL SINGLE POINT ENERGY      -632.375322016965

DIPOLE MOMENT
-------------
                                X             Y             Z
Electronic contribution:    -11.87326       2.23434       0.62851
Nuclear contribution   :     11.98472      -1.92134      -0.67274
                        -----------------------------------------
Total Dipole Moment    :      0.11146       0.31300      -0.04423
                        -----------------------------------------
Magnitude (a.u.)       :      0.33519
Magnitude (Debye)      :      0.85198

Rotational constants in cm-1:     0.035346     0.014052     0.011324
Rotational constants in MHz :  1059.659235   421.279992   339.477480

                             ****ORCA TERMINATED NORMALLY****
TOTAL RUN TIME: 0 days 0 hours 56 minutes 50 seconds 95 msec
