                         Program Version 4.2.0 -  RELEASE  -
|  1> # ORCA input file
|  2> # -53.18339675
|  3> ! wB97X-D3 def2-SVP Opt
|  4> * xyz 0 1
|  5>    C       -4.09910        -3.11050        -0.04480
|  6>    C       -3.53980        -1.72290        -0.06900
|  7>    C       -2.44030        -1.41180        -0.86200
|  8>    C       -1.92000        -0.13480        -0.88920
|  9>    C       -2.51470         0.87980        -0.13260
| 10>    C       -3.64760         0.58280         0.63110
| 11>    C       -4.13190        -0.70610         0.67670
| 12>    H       -4.99250        -0.93110         1.29000
| 13>    H       -4.10730         1.37200         1.20590
| 14>    N       -2.12740         2.20940        -0.20410
| 15>    N       -0.97280         2.61270        -0.28260
| 16>    C        0.17810         1.87030        -0.07820
| 17>    C        1.26240         2.07140        -0.93870
| 18>    C        2.46510         1.44550        -0.69680
| 19>    C        2.64090         0.64680         0.43120
| 20>    C        1.57190         0.48360         1.30980
| 21>    C        0.35070         1.07670         1.05960
| 22>    H       -0.46900         0.95430         1.75320
| 23>    H        1.69620        -0.10270         2.21120
| 24>    C        3.93530        -0.07610         0.65500
| 25>    H        4.78320         0.48790         0.26620
| 26>    C        3.94520        -1.45030        -0.02010
| 27>    O        4.91790        -1.92330        -0.52800
| 28>    O        2.78130        -2.11220         0.01810
| 29>    H        2.07700        -1.58180         0.42580
| 30>    H        4.10120        -0.25170         1.72190
| 31>    H        3.28880         1.58230        -1.38160
| 32>    H        1.12780         2.69570        -1.80830
| 33>    H       -1.07670         0.09540        -1.52540
| 34>    H       -1.98060        -2.18380        -1.46230
| 35>    H       -4.49780        -3.35100         0.93810
| 36>    H       -3.33890        -3.84160        -0.30940
| 37>    H       -4.91340        -3.19400        -0.76560
| 38> *
| 39>
| 40>                          ****END OF INPUT****
 Total Charge           Charge          ....    0
 Multiplicity           Mult            ....    1
 Number of Electrons    NEL             ....  134
Dispersion correction           -0.014371610
FINAL SINGLE POINT ENERGY      -839.087809416793
Dispersion correction            ... done
Dispersion correction           -0.014512929
FINAL SINGLE POINT ENERGY      -839.093456672322
Dispersion correction            ... done
Dispersion correction           -0.014824569
FINAL SINGLE POINT ENERGY      -839.094578090665
Dispersion correction            ... done
FINAL SINGLE POINT ENERGY      -839.094962551479
FINAL SINGLE POINT ENERGY      -839.095259945870
FINAL SINGLE POINT ENERGY      -839.095336623340
FINAL SINGLE POINT ENERGY      -839.095353362520
FINAL SINGLE POINT ENERGY      -839.095397069045
FINAL SINGLE POINT ENERGY      -839.095406453207
FINAL SINGLE POINT ENERGY      -839.095413151559
FINAL SINGLE POINT ENERGY      -839.095417166335
FINAL SINGLE POINT ENERGY      -839.095419033659
FINAL SINGLE POINT ENERGY      -839.095419451005
Dispersion correction            ... done
Dispersion correction           -0.015573300
FINAL SINGLE POINT ENERGY      -839.095420250437
Dispersion correction            ... done
Dispersion correction           -0.015566729
FINAL SINGLE POINT ENERGY      -839.095421045953
Dispersion correction            ... done
                    ***********************HURRAY********************

CARTESIAN COORDINATES (ANGSTROEM)
---------------------------------
  C     -3.391015   -3.173581    0.040342
  C     -3.053047   -1.708638   -0.054986
  C     -2.126805   -1.243196   -0.996586
  C     -1.813787    0.108148   -1.097709
  C     -2.435666    1.029820   -0.250223
  C     -3.402808    0.591887    0.654419
  C     -3.684943   -0.766229    0.764788
  H     -4.423123   -1.101595    1.499038
  H     -3.915052    1.327412    1.279270
  N     -2.199634    2.440633   -0.332870
  N     -1.061473    2.920168   -0.274040
  C      0.083218    2.107508   -0.002169
  C      1.142308    2.132545   -0.911554
  C      2.261963    1.339219   -0.689044
  C      2.370324    0.552885    0.465092
  C      1.335490    0.608845    1.407591
  C      0.195967    1.373589    1.180041
  H     -0.614553    1.388175    1.911455
  H      1.414006    0.029229    2.332427
  C      3.523592   -0.398500    0.647101
  H      4.453413   -0.010812    0.209285
  C      3.310363   -1.789053    0.037496
  O      4.219167   -2.533879   -0.185586
  O      2.042340   -2.149249   -0.202870
  H      1.438175   -1.420977   -0.000572
  H      3.731441   -0.564744    1.716517
  H      3.068934    1.326410   -1.427194
  H      1.060152    2.753318   -1.806694
  H     -1.086226    0.447499   -1.837709
  H     -1.632620   -1.955508   -1.663998
  H     -3.683216   -3.452814    1.062618
  H     -2.539295   -3.802789   -0.255375
  H     -4.234392   -3.424826   -0.623199

 Multiplicity           Mult            ....    1
 Number of Electrons    NEL             ....  134
 Basis Dimension        Dim             ....  336

ORBITAL ENERGIES
----------------

  NO   OCC          E(Eh)            E(eV)
   0   2.0000     -19.287536      -524.8405
   1   2.0000     -19.221532      -523.0445
   2   2.0000     -14.499921      -394.5629
   3   2.0000     -14.498964      -394.5369
   4   2.0000     -10.422671      -283.6153
   5   2.0000     -10.347494      -281.5696
   6   2.0000     -10.337229      -281.2903
   7   2.0000     -10.330092      -281.0961
   8   2.0000     -10.324730      -280.9502
   9   2.0000     -10.323596      -280.9193
  10   2.0000     -10.323168      -280.9077
  11   2.0000     -10.321796      -280.8703
  12   2.0000     -10.321145      -280.8526
  13   2.0000     -10.317217      -280.7457
  14   2.0000     -10.314755      -280.6788
  15   2.0000     -10.311892      -280.6009
  16   2.0000     -10.309620      -280.5390
  17   2.0000     -10.309178      -280.5270
  18   2.0000     -10.300435      -280.2891
  19   2.0000      -1.212302       -32.9884
  20   2.0000      -1.170947       -31.8631
  21   2.0000      -1.124735       -30.6056
  22   2.0000      -1.008124       -27.4324
  23   2.0000      -0.993413       -27.0322
  24   2.0000      -0.936902       -25.4944
  25   2.0000      -0.910337       -24.7715
  26   2.0000      -0.886978       -24.1359
  27   2.0000      -0.875167       -23.8145
  28   2.0000      -0.861606       -23.4455
  29   2.0000      -0.825646       -22.4670
  30   2.0000      -0.771604       -20.9964
  31   2.0000      -0.747419       -20.3383
  32   2.0000      -0.736016       -20.0280
  33   2.0000      -0.729833       -19.8598
  34   2.0000      -0.721227       -19.6256
  35   2.0000      -0.690423       -18.7874
  36   2.0000      -0.668850       -18.2003
  37   2.0000      -0.634914       -17.2769
  38   2.0000      -0.615052       -16.7364
  39   2.0000      -0.602900       -16.4057
  40   2.0000      -0.598321       -16.2811
  41   2.0000      -0.584782       -15.9127
  42   2.0000      -0.566853       -15.4249
  43   2.0000      -0.564926       -15.3724
  44   2.0000      -0.551768       -15.0144
  45   2.0000      -0.549503       -14.9527
  46   2.0000      -0.543002       -14.7758
  47   2.0000      -0.542613       -14.7652
  48   2.0000      -0.536698       -14.6043
  49   2.0000      -0.529195       -14.4001
  50   2.0000      -0.516485       -14.0543
  51   2.0000      -0.499859       -13.6018
  52   2.0000      -0.491852       -13.3840
  53   2.0000      -0.488678       -13.2976
  54   2.0000      -0.479346       -13.0437
  55   2.0000      -0.473253       -12.8779
  56   2.0000      -0.471023       -12.8172
  57   2.0000      -0.468189       -12.7401
  58   2.0000      -0.453625       -12.3438
  59   2.0000      -0.447012       -12.1638
  60   2.0000      -0.414224       -11.2716
  61   2.0000      -0.384353       -10.4588
  62   2.0000      -0.373918       -10.1748
  63   2.0000      -0.363536        -9.8923
  64   2.0000      -0.356111        -9.6903
  65   2.0000      -0.349180        -9.5017
  66   2.0000      -0.308072        -8.3831
  67   0.0000      -0.005993        -0.1631
  68   0.0000       0.033451         0.9102
  69   0.0000       0.042438         1.1548
  70   0.0000       0.054801         1.4912
  71   0.0000       0.077786         2.1167

MULLIKEN ATOMIC CHARGES
-----------------------
   0 C :    0.023136
   1 C :   -0.081684
   2 C :   -0.050497
   3 C :    0.032094
   4 C :   -0.021982
   5 C :    0.013837
   6 C :   -0.041292
   7 H :    0.015237
   8 H :    0.020829
   9 N :   -0.071894
  10 N :   -0.075544
  11 C :   -0.027980
  12 C :    0.021993
  13 C :   -0.014204
  14 C :   -0.156891
  15 C :   -0.067027
  16 C :    0.060611
  17 H :    0.020663
  18 H :    0.027152
  19 C :    0.033806
  20 H :    0.068691
  21 C :    0.148824
  22 O :   -0.215522
  23 O :   -0.180499
  24 H :    0.194733
  25 H :    0.079792
  26 H :    0.026011
  27 H :    0.027909
  28 H :    0.014946
  29 H :    0.020702
  30 H :    0.041006
  31 H :    0.048732
  32 H :    0.064313
Sum of atomic charges:   -0.0000000

LOEWDIN ATOMIC CHARGES
----------------------
   0 C :   -0.054453
   1 C :   -0.026839
   2 C :   -0.029426
   3 C :   -0.031815
   4 C :   -0.044078
   5 C :   -0.024987
   6 C :   -0.027787
   7 H :    0.034234
   8 H :    0.039331
   9 N :    0.000012
  10 N :   -0.009275
  11 C :   -0.028632
  12 C :   -0.023524
  13 C :   -0.018064
  14 C :   -0.060094
  15 C :   -0.033916
  16 C :   -0.022957
  17 H :    0.040251
  18 H :    0.037333
  19 C :   -0.066913
  20 H :    0.055500
  21 C :    0.083216
  22 O :   -0.168159
  23 O :   -0.033832
  24 H :    0.085210
  25 H :    0.058602
  26 H :    0.038242
  27 H :    0.042631
  28 H :    0.036838
  29 H :    0.035750
  30 H :    0.035050
  31 H :    0.038027
  32 H :    0.044524

  Mayer bond orders larger than 0.100000
B(  0-C ,  1-C ) :   1.0389 B(  0-C , 30-H ) :   0.9674 B(  0-C , 31-H ) :   0.9677
B(  0-C , 32-H ) :   0.9590 B(  1-C ,  2-C ) :   1.3888 B(  1-C ,  6-C ) :   1.3936
B(  2-C ,  3-C ) :   1.3995 B(  2-C , 29-H ) :   0.9874 B(  3-C ,  4-C ) :   1.3529
B(  3-C , 28-H ) :   0.9888 B(  4-C ,  5-C ) :   1.3928 B(  4-C ,  9-N ) :   1.0147
B(  5-C ,  6-C ) :   1.3862 B(  5-C ,  8-H ) :   0.9927 B(  6-C ,  7-H ) :   0.9894
B(  9-N , 10-N ) :   1.7960 B( 10-N , 11-C ) :   1.0130 B( 11-C , 12-C ) :   1.3818
B( 11-C , 16-C ) :   1.3687 B( 12-C , 13-C ) :   1.3958 B( 12-C , 27-H ) :   0.9941
B( 13-C , 14-C ) :   1.3762 B( 13-C , 26-H ) :   0.9924 B( 14-C , 15-C ) :   1.3660
B( 14-C , 19-C ) :   0.9906 B( 15-C , 16-C ) :   1.3907 B( 15-C , 18-H ) :   0.9912
B( 16-C , 17-H ) :   0.9896 B( 19-C , 20-H ) :   0.9341 B( 19-C , 21-C ) :   0.9601
B( 19-C , 25-H ) :   0.9284 B( 21-C , 22-O ) :   2.1403 B( 21-C , 23-O ) :   1.2155
B( 23-O , 24-H ) :   0.9408

Dispersion correction           -0.015566825
FINAL SINGLE POINT ENERGY      -839.095421806498

DIPOLE MOMENT
-------------
                                X             Y             Z
Electronic contribution:      4.62733       8.11595      -1.52830
Nuclear contribution   :     -5.37964      -8.02136       2.13258
                        -----------------------------------------
Total Dipole Moment    :     -0.75231       0.09460       0.60427
                        -----------------------------------------
Magnitude (a.u.)       :      0.96957
Magnitude (Debye)      :      2.46445

Rotational constants in cm-1:     0.017546     0.008996     0.006577
Rotational constants in MHz :   526.007086   269.701096   197.183082

                             ****ORCA TERMINATED NORMALLY****
TOTAL RUN TIME: 0 days 2 hours 3 minutes 21 seconds 798 msec
