                         Program Version 4.2.0 -  RELEASE  -
|  1> # ORCA input file
|  2> # -38.70189215
|  3> ! wB97X-D3 def2-SVP Opt
|  4> * xyz 0 1
|  5>    C       -4.08630        -0.21600         0.60900
|  6>    C       -2.64860        -0.23560         0.19390
|  7>    C       -1.89310         0.91840         0.14300
|  8>    C       -0.53810         0.90140        -0.21620
|  9>    C        0.06350        -0.31360        -0.59100
| 10>    C       -0.71080        -1.46930        -0.54960
| 11>    C       -2.03180        -1.43790        -0.15420
| 12>    H       -2.60250        -2.35430        -0.12090
| 13>    H       -0.25490        -2.40850        -0.82460
| 14>    C        1.48960        -0.42440        -1.03710
| 15>    H        1.58730        -1.23920        -1.75490
| 16>    H        1.84980         0.50450        -1.47980
| 17>    C        2.34800        -0.78220         0.18900
| 18>    O        2.64110        -1.91340         0.45200
| 19>    O        2.70960         0.24480         0.93930
| 20>    H        2.36480         1.10100         0.58700
| 21>    C        0.16780         2.17390        -0.18060
| 22>    O        1.37000         2.34190        -0.11770
| 23>    H       -0.50240         3.05170        -0.19510
| 24>    H       -2.34300         1.86440         0.41090
| 25>    H       -4.70670        -0.69200        -0.14850
| 26>    H       -4.43650         0.80150         0.76030
| 27>    H       -4.21490        -0.76900         1.53870
| 28> *
| 29>
| 30>                          ****END OF INPUT****
 Total Charge           Charge          ....    0
 Multiplicity           Mult            ....    1
 Number of Electrons    NEL             ....   94
Dispersion correction           -0.008911865
FINAL SINGLE POINT ENERGY      -612.163574558181
Dispersion correction            ... done
Dispersion correction           -0.008908347
FINAL SINGLE POINT ENERGY      -612.165540019678
Dispersion correction            ... done
Dispersion correction           -0.008824173
FINAL SINGLE POINT ENERGY      -612.162574332299
Dispersion correction            ... done
FINAL SINGLE POINT ENERGY      -612.165588404874
FINAL SINGLE POINT ENERGY      -612.163981594044
FINAL SINGLE POINT ENERGY      -612.165933325950
FINAL SINGLE POINT ENERGY      -612.165841212809
FINAL SINGLE POINT ENERGY      -612.165993145359
FINAL SINGLE POINT ENERGY      -612.165995669338
Dispersion correction            ... done
Dispersion correction           -0.008850681
FINAL SINGLE POINT ENERGY      -612.165996041747
Dispersion correction            ... done
Dispersion correction           -0.008851741
FINAL SINGLE POINT ENERGY      -612.165998426828
Dispersion correction            ... done
                    ***********************HURRAY********************

CARTESIAN COORDINATES (ANGSTROEM)
---------------------------------
  C     -4.130082   -0.207565    0.594812
  C     -2.680183   -0.235322    0.188683
  C     -1.907885    0.921046    0.136362
  C     -0.548003    0.895524   -0.211015
  C      0.069618   -0.318300   -0.576310
  C     -0.712299   -1.476428   -0.529060
  C     -2.048327   -1.439578   -0.147582
  H     -2.620506   -2.371723   -0.120475
  H     -0.253486   -2.431231   -0.798517
  C      1.510579   -0.441066   -1.019417
  H      1.598679   -1.274142   -1.727496
  H      1.853442    0.478302   -1.513425
  C      2.428583   -0.777907    0.160550
  O      2.778954   -1.899291    0.400525
  O      2.784264    0.255899    0.914354
  H      2.391398    1.080229    0.561756
  C      0.159137    2.189574   -0.145761
  O      1.360950    2.351451   -0.085316
  H     -0.509584    3.082302   -0.131445
  H     -2.365278    1.883440    0.389618
  H     -4.763115   -0.698599   -0.159586
  H     -4.493427    0.821117    0.724929
  H     -4.281528   -0.739631    1.546716

 Multiplicity           Mult            ....    1
 Number of Electrons    NEL             ....   94
 Basis Dimension        Dim             ....  232

ORBITAL ENERGIES
----------------

  NO   OCC          E(Eh)            E(eV)
   0   2.0000     -19.276913      -524.5515
   1   2.0000     -19.262252      -524.1525
   2   2.0000     -19.208579      -522.6920
   3   2.0000     -10.414559      -283.3945
   4   2.0000     -10.408473      -283.2289
   5   2.0000     -10.338079      -281.3134
   6   2.0000     -10.327112      -281.0150
   7   2.0000     -10.326703      -281.0039
   8   2.0000     -10.326509      -280.9986
   9   2.0000     -10.322266      -280.8831
  10   2.0000     -10.316635      -280.7299
  11   2.0000     -10.312031      -280.6046
  12   2.0000     -10.309274      -280.5296
  13   2.0000      -1.197090       -32.5745
  14   2.0000      -1.185859       -32.2689
  15   2.0000      -1.107424       -30.1346
  16   2.0000      -1.007993       -27.4289
  17   2.0000      -0.931400       -25.3447
  18   2.0000      -0.902840       -24.5675
  19   2.0000      -0.863524       -23.4977
  20   2.0000      -0.800095       -21.7717
  21   2.0000      -0.777327       -21.1521
  22   2.0000      -0.737819       -20.0771
  23   2.0000      -0.707724       -19.2581
  24   2.0000      -0.681628       -18.5481
  25   2.0000      -0.637310       -17.3421
  26   2.0000      -0.620009       -16.8713
  27   2.0000      -0.610783       -16.6202
  28   2.0000      -0.593049       -16.1377
  29   2.0000      -0.577647       -15.7186
  30   2.0000      -0.555510       -15.1162
  31   2.0000      -0.548485       -14.9250
  32   2.0000      -0.545708       -14.8495
  33   2.0000      -0.544527       -14.8173
  34   2.0000      -0.532527       -14.4908
  35   2.0000      -0.512035       -13.9332
  36   2.0000      -0.506392       -13.7796
  37   2.0000      -0.492883       -13.4120
  38   2.0000      -0.484166       -13.1748
  39   2.0000      -0.473746       -12.8913
  40   2.0000      -0.460920       -12.5423
  41   2.0000      -0.448003       -12.1908
  42   2.0000      -0.397394       -10.8136
  43   2.0000      -0.388945       -10.5837
  44   2.0000      -0.370766       -10.0891
  45   2.0000      -0.369562       -10.0563
  46   2.0000      -0.339410        -9.2358
  47   0.0000      -0.016501        -0.4490
  48   0.0000       0.041993         1.1427
  49   0.0000       0.089253         2.4287
  50   0.0000       0.115443         3.1414
  51   0.0000       0.134946         3.6721

MULLIKEN ATOMIC CHARGES
-----------------------
   0 C :    0.030823
   1 C :   -0.094926
   2 C :   -0.034301
   3 C :   -0.059819
   4 C :   -0.086800
   5 C :   -0.018188
   6 C :   -0.005678
   7 H :    0.023627
   8 H :    0.031893
   9 C :    0.015383
  10 H :    0.052315
  11 H :    0.061133
  12 C :    0.159187
  13 O :   -0.224080
  14 O :   -0.190762
  15 H :    0.191129
  16 C :    0.210456
  17 O :   -0.258724
  18 H :    0.034524
  19 H :    0.006523
  20 H :    0.055884
  21 H :    0.037404
  22 H :    0.062997
Sum of atomic charges:   -0.0000000

LOEWDIN ATOMIC CHARGES
----------------------
   0 C :   -0.053449
   1 C :   -0.032600
   2 C :   -0.004261
   3 C :   -0.099318
   4 C :    0.005979
   5 C :   -0.014053
   6 C :    0.002660
   7 H :    0.038694
   8 H :    0.042367
   9 C :   -0.067824
  10 H :    0.048647
  11 H :    0.040643
  12 C :    0.080178
  13 O :   -0.180270
  14 O :   -0.036398
  15 H :    0.058000
  16 C :    0.148349
  17 O :   -0.144068
  18 H :    0.013793
  19 H :    0.032331
  20 H :    0.041578
  21 H :    0.034266
  22 H :    0.044755

  Mayer bond orders larger than 0.100000
B(  0-C ,  1-C ) :   1.0358 B(  0-C , 20-H ) :   0.9630 B(  0-C , 21-H ) :   0.9687
B(  0-C , 22-H ) :   0.9603 B(  1-C ,  2-C ) :   1.4234 B(  1-C ,  6-C ) :   1.3723
B(  2-C ,  3-C ) :   1.3258 B(  2-C , 19-H ) :   0.9858 B(  3-C ,  4-C ) :   1.3663
B(  3-C , 16-C ) :   0.9940 B(  4-C ,  5-C ) :   1.4044 B(  4-C ,  9-C ) :   1.0527
B(  5-C ,  6-C ) :   1.4037 B(  5-C ,  8-H ) :   0.9871 B(  6-C ,  7-H ) :   0.9933
B(  9-C , 10-H ) :   0.9243 B(  9-C , 11-H ) :   0.9277 B(  9-C , 12-C ) :   0.9533
B( 12-C , 13-O ) :   2.1352 B( 12-C , 14-O ) :   1.2454 B( 14-O , 15-H ) :   0.9068
B( 15-H , 17-O ) :   0.1190 B( 16-C , 17-O ) :   1.9752 B( 16-C , 18-H ) :   0.9634

Dispersion correction           -0.008851796
FINAL SINGLE POINT ENERGY      -612.165999206181

DIPOLE MOMENT
-------------
                                X             Y             Z
Electronic contribution:     10.20672       0.91342       0.37232
Nuclear contribution   :    -12.65991      -0.17366      -1.12495
                        -----------------------------------------
Total Dipole Moment    :     -2.45319       0.73976      -0.75263
                        -----------------------------------------
Magnitude (a.u.)       :      2.67055
Magnitude (Debye)      :      6.78800

Rotational constants in cm-1:     0.045710     0.018551     0.014354
Rotational constants in MHz :  1370.349785   556.153770   430.308817

                             ****ORCA TERMINATED NORMALLY****
TOTAL RUN TIME: 0 days 0 hours 37 minutes 5 seconds 81 msec
