                         Program Version 4.2.0 -  RELEASE  -
|  1> # ORCA input file
|  2> # -41.07890322
|  3> ! wB97X-D3 def2-SVP Opt
|  4> * xyz 0 1
|  5>    C       -0.61940        -2.11550         0.48930
|  6>    C       -0.13120        -0.70300         0.42240
|  7>    C        1.19470        -0.40790         0.11370
|  8>    C        1.64680         0.91290         0.03240
|  9>    C        0.76070         1.96240         0.26700
| 10>    C       -0.55010         1.68110         0.58710
| 11>    C       -0.99760         0.36770         0.67530
| 12>    C       -2.44800         0.12320         1.01220
| 13>    H       -2.57220        -0.79700         1.57950
| 14>    C       -3.20580         0.00820        -0.29470
| 15>    O       -3.40240        -1.00960        -0.89970
| 16>    O       -3.61270         1.20300        -0.72870
| 17>    H       -4.06150         1.12610        -1.58570
| 18>    H       -2.84590         0.96990         1.56990
| 19>    H       -1.24160         2.48960         0.76960
| 20>    H        1.11210         2.98030         0.19820
| 21>    C        2.99510         1.19450        -0.28800
| 22>    N        4.08320         1.44500        -0.54580
| 23>   Cl        2.34830        -1.66410        -0.18700
| 24>    H       -0.84630        -2.38750         1.52020
| 25>    H        0.13530        -2.79990         0.11610
| 26>    H       -1.52340        -2.23260        -0.10380
| 27> *
| 28>
| 29>                          ****END OF INPUT****
 Total Charge           Charge          ....    0
 Multiplicity           Mult            ....    1
 Number of Electrons    NEL             ....  108
Dispersion correction           -0.009534975
FINAL SINGLE POINT ENERGY     -1050.548161852812
Dispersion correction            ... done
Dispersion correction           -0.009506228
FINAL SINGLE POINT ENERGY     -1050.550541628458
Dispersion correction            ... done
Dispersion correction           -0.009466976
FINAL SINGLE POINT ENERGY     -1050.550673455677
Dispersion correction            ... done
FINAL SINGLE POINT ENERGY     -1050.550836256893
FINAL SINGLE POINT ENERGY     -1050.550873702632
FINAL SINGLE POINT ENERGY     -1050.550890262399
FINAL SINGLE POINT ENERGY     -1050.550904365972
FINAL SINGLE POINT ENERGY     -1050.550917645651
FINAL SINGLE POINT ENERGY     -1050.550929305358
FINAL SINGLE POINT ENERGY     -1050.550938677338
FINAL SINGLE POINT ENERGY     -1050.550946765737
FINAL SINGLE POINT ENERGY     -1050.550954510745
FINAL SINGLE POINT ENERGY     -1050.550966105617
FINAL SINGLE POINT ENERGY     -1050.550971493721
FINAL SINGLE POINT ENERGY     -1050.550979711375
FINAL SINGLE POINT ENERGY     -1050.550985363819
Dispersion correction            ... done
Dispersion correction           -0.009468952
FINAL SINGLE POINT ENERGY     -1050.550992011247
Dispersion correction            ... done
Dispersion correction           -0.009469134
FINAL SINGLE POINT ENERGY     -1050.550992632825
Dispersion correction            ... done
                    ***********************HURRAY********************

CARTESIAN COORDINATES (ANGSTROEM)
---------------------------------
  C     -0.623011   -2.120689    0.456690
  C     -0.133314   -0.696040    0.405149
  C      1.208305   -0.397969    0.122949
  C      1.672977    0.925652    0.054139
  C      0.783214    1.978133    0.285260
  C     -0.539495    1.701207    0.591115
  C     -1.000519    0.384635    0.662885
  C     -2.461382    0.143032    0.991980
  H     -2.599394   -0.763283    1.592720
  C     -3.287114   -0.007137   -0.269199
  O     -3.700994   -1.046497   -0.709302
  O     -3.488171    1.169682   -0.872881
  H     -3.978317    0.993693   -1.690007
  H     -2.851204    0.999192    1.559977
  H     -1.234958    2.522742    0.777268
  H      1.143260    3.006673    0.228844
  C      3.049818    1.217656   -0.251044
  N      4.144451    1.498837   -0.495871
  Cl     2.349801   -1.675032   -0.147047
  H     -0.565221   -2.514099    1.485084
  H     -0.008008   -2.771792   -0.175166
  H     -1.662624   -2.201795    0.115957

 Multiplicity           Mult            ....    1
 Number of Electrons    NEL             ....  108
 Basis Dimension        Dim             ....  240

ORBITAL ENERGIES
----------------

  NO   OCC          E(Eh)            E(eV)
   0   2.0000    -101.617859     -2765.1625
   1   2.0000     -19.310390      -525.4624
   2   2.0000     -19.251085      -523.8487
   3   2.0000     -14.436342      -392.8328
   4   2.0000     -10.444351      -284.2052
   5   2.0000     -10.380527      -282.4685
   6   2.0000     -10.354809      -281.7687
   7   2.0000     -10.341233      -281.3992
   8   2.0000     -10.338014      -281.3117
   9   2.0000     -10.336857      -281.2802
  10   2.0000     -10.331967      -281.1471
  11   2.0000     -10.330429      -281.1053
  12   2.0000     -10.323387      -280.9136
  13   2.0000     -10.303464      -280.3715
  14   2.0000      -9.590109      -260.9601
  15   2.0000      -7.350768      -200.0246
  16   2.0000      -7.340129      -199.7351
  17   2.0000      -7.339709      -199.7236
  18   2.0000      -1.240048       -33.7434
  19   2.0000      -1.142456       -31.0878
  20   2.0000      -1.044232       -28.4150
  21   2.0000      -1.012997       -27.5651
  22   2.0000      -0.983288       -26.7566
  23   2.0000      -0.939776       -25.5726
  24   2.0000      -0.896316       -24.3900
  25   2.0000      -0.865615       -23.5546
  26   2.0000      -0.818937       -22.2844
  27   2.0000      -0.769518       -20.9396
  28   2.0000      -0.730341       -19.8736
  29   2.0000      -0.722671       -19.6649
  30   2.0000      -0.664159       -18.0727
  31   2.0000      -0.634458       -17.2645
  32   2.0000      -0.617559       -16.8046
  33   2.0000      -0.609631       -16.5889
  34   2.0000      -0.603731       -16.4284
  35   2.0000      -0.564471       -15.3600
  36   2.0000      -0.554633       -15.0923
  37   2.0000      -0.553348       -15.0574
  38   2.0000      -0.538980       -14.6664
  39   2.0000      -0.526019       -14.3137
  40   2.0000      -0.515302       -14.0221
  41   2.0000      -0.512266       -13.9395
  42   2.0000      -0.508611       -13.8400
  43   2.0000      -0.479547       -13.0491
  44   2.0000      -0.474976       -12.9247
  45   2.0000      -0.462045       -12.5729
  46   2.0000      -0.456887       -12.4325
  47   2.0000      -0.450557       -12.2603
  48   2.0000      -0.439113       -11.9489
  49   2.0000      -0.437835       -11.9141
  50   2.0000      -0.417684       -11.3658
  51   2.0000      -0.398506       -10.8439
  52   2.0000      -0.354163        -9.6373
  53   2.0000      -0.349130        -9.5003
  54   0.0000       0.004237         0.1153
  55   0.0000       0.035572         0.9680
  56   0.0000       0.077452         2.1076
  57   0.0000       0.115074         3.1313
  58   0.0000       0.120242         3.2719

MULLIKEN ATOMIC CHARGES
-----------------------
   0 C :    0.036831
   1 C :   -0.121678
   2 C :    0.056804
   3 C :   -0.133190
   4 C :    0.018700
   5 C :   -0.016654
   6 C :   -0.117269
   7 C :    0.061952
   8 H :    0.065612
   9 C :    0.151545
  10 O :   -0.223349
  11 O :   -0.192454
  12 H :    0.199583
  13 H :    0.064570
  14 H :    0.026720
  15 H :    0.036074
  16 C :   -0.105936
  17 N :    0.065101
  18 Cl:   -0.050236
  19 H :    0.065542
  20 H :    0.050909
  21 H :    0.060825
Sum of atomic charges:    0.0000000

LOEWDIN ATOMIC CHARGES
----------------------
   0 C :   -0.062217
   1 C :   -0.036020
   2 C :   -0.093614
   3 C :   -0.093589
   4 C :    0.007127
   5 C :   -0.022878
   6 C :   -0.010512
   7 C :   -0.050389
   8 H :    0.051048
   9 C :    0.091811
  10 O :   -0.179159
  11 O :   -0.036110
  12 H :    0.103059
  13 H :    0.052310
  14 H :    0.040115
  15 H :    0.048549
  16 C :   -0.028909
  17 N :   -0.056853
  18 Cl:    0.157404
  19 H :    0.047241
  20 H :    0.032129
  21 H :    0.039459

  Mayer bond orders larger than 0.100000
B(  0-C ,  1-C ) :   1.0674 B(  0-C , 19-H ) :   0.9514 B(  0-C , 20-H ) :   0.9444
B(  0-C , 21-H ) :   0.9392 B(  1-C ,  2-C ) :   1.4191 B(  1-C ,  6-C ) :   1.4080
B(  2-C ,  3-C ) :   1.4060 B(  2-C , 18-Cl) :   1.0888 B(  3-C ,  4-C ) :   1.3954
B(  3-C , 16-C ) :   1.0557 B(  4-C ,  5-C ) :   1.3814 B(  4-C , 15-H ) :   0.9969
B(  5-C ,  6-C ) :   1.3845 B(  5-C , 14-H ) :   0.9904 B(  6-C ,  7-C ) :   1.0576
B(  7-C ,  8-H ) :   0.9264 B(  7-C ,  9-C ) :   0.9685 B(  7-C , 13-H ) :   0.9208
B(  9-C , 10-O ) :   2.0819 B(  9-C , 11-O ) :   1.2473 B( 11-O , 12-H ) :   0.9470
B( 16-C , 17-N ) :   3.0344

Dispersion correction           -0.009469167
FINAL SINGLE POINT ENERGY     -1050.550996373855

DIPOLE MOMENT
-------------
                                X             Y             Z
Electronic contribution:     12.26876      -1.19601      -3.23261
Nuclear contribution   :    -14.22294       1.56222       3.73388
                        -----------------------------------------
Total Dipole Moment    :     -1.95419       0.36621       0.50127
                        -----------------------------------------
Magnitude (a.u.)       :      2.05042
Magnitude (Debye)      :      5.21176

Rotational constants in cm-1:     0.037926     0.012539     0.010146
Rotational constants in MHz :  1136.998548   375.916269   304.183642

                             ****ORCA TERMINATED NORMALLY****
TOTAL RUN TIME: 0 days 1 hours 1 minutes 36 seconds 389 msec
