                         Program Version 4.2.0 -  RELEASE  -
|  1> # ORCA input file
|  2> # -52.40534012
|  3> ! wB97X-D3 def2-SVP Opt
|  4> * xyz 0 1
|  5>    C        1.65640         1.24640        -0.80090
|  6>    C        0.39590         1.63400        -0.39550
|  7>    C       -0.46570         0.71400         0.19760
|  8>    C       -0.04670        -0.59750         0.37430
|  9>    C        1.22110        -0.97390        -0.03440
| 10>    C        2.08790        -0.06730        -0.62820
| 11>    C        3.47700        -0.48290        -1.01400
| 12>    H        3.50620        -1.52060        -1.34550
| 13>    C        4.45590        -0.34220         0.15420
| 14>    O        5.31540        -1.13760         0.39010
| 15>    O        4.29980         0.76300         0.89450
| 16>    H        3.53620         1.28860         0.60730
| 17>    H        3.85710         0.14730        -1.82280
| 18>    H        1.53730        -1.99600         0.10820
| 19>    H       -0.68680        -1.34570         0.81320
| 20>    O       -1.68110         1.23390         0.58040
| 21>    C       -2.67270         0.41250         1.11400
| 22>    H       -2.28640        -0.34330         1.80810
| 23>    C       -3.49220        -0.30060         0.02890
| 24>    F       -2.77690        -1.17380        -0.68990
| 25>    F       -4.03970         0.55750        -0.83380
| 26>    F       -4.49660        -0.99500         0.58780
| 27>    H       -3.36430         1.07330         1.64690
| 28>    H        0.05170         2.64640        -0.53130
| 29>    H        2.29980         1.97120        -1.28150
| 30> *
| 31>
| 32>                          ****END OF INPUT****
 Total Charge           Charge          ....    0
 Multiplicity           Mult            ....    1
 Number of Electrons    NEL             ....  120
Dispersion correction           -0.010112456
FINAL SINGLE POINT ENERGY      -910.785379306659
Dispersion correction            ... done
Dispersion correction           -0.010069331
FINAL SINGLE POINT ENERGY      -910.787988900813
Dispersion correction            ... done
Dispersion correction           -0.010078326
FINAL SINGLE POINT ENERGY      -910.788458312595
Dispersion correction            ... done
FINAL SINGLE POINT ENERGY      -910.788703286775
FINAL SINGLE POINT ENERGY      -910.788828854059
FINAL SINGLE POINT ENERGY      -910.788919724006
FINAL SINGLE POINT ENERGY      -910.788964098785
FINAL SINGLE POINT ENERGY      -910.788995053081
FINAL SINGLE POINT ENERGY      -910.789006691986
FINAL SINGLE POINT ENERGY      -910.789016985396
FINAL SINGLE POINT ENERGY      -910.789028908231
Dispersion correction            ... done
Dispersion correction           -0.010050280
FINAL SINGLE POINT ENERGY      -910.789036664154
Dispersion correction            ... done
Dispersion correction           -0.010048309
FINAL SINGLE POINT ENERGY      -910.789042359643
Dispersion correction            ... done
                    ***********************HURRAY********************

CARTESIAN COORDINATES (ANGSTROEM)
---------------------------------
  C      1.672925    1.302966   -0.905975
  C      0.376440    1.677374   -0.576879
  C     -0.499491    0.746747   -0.010939
  C     -0.063862   -0.560741    0.217873
  C      1.243008   -0.916136   -0.109041
  C      2.134492   -0.000838   -0.675727
  C      3.558155   -0.394141   -0.980641
  H      3.622152   -1.398146   -1.422076
  C      4.506182   -0.392294    0.221193
  O      5.527594   -1.014552    0.237356
  O      4.148226    0.383618    1.253447
  H      3.276459    0.769043    1.090794
  H      3.999150    0.295244   -1.718960
  H      1.569998   -1.943410    0.076056
  H     -0.735282   -1.320445    0.617295
  O     -1.744107    1.215889    0.277590
  C     -2.636900    0.473644    1.048817
  H     -2.136119   -0.187825    1.773612
  C     -3.579866   -0.360725    0.196001
  F     -2.929510   -1.275610   -0.530421
  F     -4.279269    0.398121   -0.642664
  F     -4.438620   -1.005285    0.992682
  H     -3.260474    1.185362    1.608381
  H      0.014246    2.691620   -0.754827
  H      2.343074    2.042218   -1.355245

 Multiplicity           Mult            ....    1
 Number of Electrons    NEL             ....  120
 Basis Dimension        Dim             ....  269

ORBITAL ENERGIES
----------------

  NO   OCC          E(Eh)            E(eV)
   0   2.0000     -24.840879      -675.9547
   1   2.0000     -24.840645      -675.9483
   2   2.0000     -24.837262      -675.8563
   3   2.0000     -19.307128      -525.3737
   4   2.0000     -19.285080      -524.7737
   5   2.0000     -19.219316      -522.9842
   6   2.0000     -10.550158      -287.0844
   7   2.0000     -10.419900      -283.5399
   8   2.0000     -10.390355      -282.7359
   9   2.0000     -10.382624      -282.5256
  10   2.0000     -10.323876      -280.9269
  11   2.0000     -10.323321      -280.9118
  12   2.0000     -10.322699      -280.8949
  13   2.0000     -10.319072      -280.7962
  14   2.0000     -10.318965      -280.7933
  15   2.0000     -10.315117      -280.6886
  16   2.0000      -1.438581       -39.1458
  17   2.0000      -1.342817       -36.5399
  18   2.0000      -1.341321       -36.4992
  19   2.0000      -1.215926       -33.0870
  20   2.0000      -1.210172       -32.9305
  21   2.0000      -1.122534       -30.5457
  22   2.0000      -1.001808       -27.2606
  23   2.0000      -0.934587       -25.4314
  24   2.0000      -0.898992       -24.4628
  25   2.0000      -0.884322       -24.0636
  26   2.0000      -0.833636       -22.6844
  27   2.0000      -0.796311       -21.6687
  28   2.0000      -0.749829       -20.4039
  29   2.0000      -0.737101       -20.0575
  30   2.0000      -0.720634       -19.6095
  31   2.0000      -0.719528       -19.5793
  32   2.0000      -0.715483       -19.4693
  33   2.0000      -0.693768       -18.8784
  34   2.0000      -0.662663       -18.0320
  35   2.0000      -0.632005       -17.1977
  36   2.0000      -0.629949       -17.1418
  37   2.0000      -0.600116       -16.3300
  38   2.0000      -0.591168       -16.0865
  39   2.0000      -0.588584       -16.0162
  40   2.0000      -0.579911       -15.7802
  41   2.0000      -0.569924       -15.5084
  42   2.0000      -0.559690       -15.2299
  43   2.0000      -0.555333       -15.1114
  44   2.0000      -0.546623       -14.8744
  45   2.0000      -0.542846       -14.7716
  46   2.0000      -0.542015       -14.7490
  47   2.0000      -0.539375       -14.6771
  48   2.0000      -0.527482       -14.3535
  49   2.0000      -0.503427       -13.6989
  50   2.0000      -0.497879       -13.5480
  51   2.0000      -0.489838       -13.3292
  52   2.0000      -0.476731       -12.9725
  53   2.0000      -0.473325       -12.8798
  54   2.0000      -0.452550       -12.3145
  55   2.0000      -0.444851       -12.1050
  56   2.0000      -0.411990       -11.2108
  57   2.0000      -0.374352       -10.1866
  58   2.0000      -0.370111       -10.0712
  59   2.0000      -0.330995        -9.0068
  60   0.0000       0.036245         0.9863
  61   0.0000       0.048456         1.3186
  62   0.0000       0.099653         2.7117
  63   0.0000       0.131532         3.5792
  64   0.0000       0.142724         3.8837

MULLIKEN ATOMIC CHARGES
-----------------------
   0 C :   -0.039460
   1 C :   -0.032077
   2 C :    0.221730
   3 C :   -0.097058
   4 C :    0.001009
   5 C :   -0.181637
   6 C :    0.038395
   7 H :    0.070546
   8 C :    0.145102
   9 O :   -0.214804
  10 O :   -0.179429
  11 H :    0.194304
  12 H :    0.076134
  13 H :    0.025983
  14 H :    0.021389
  15 O :   -0.328543
  16 C :    0.118924
  17 H :    0.063457
  18 C :    0.478593
  19 F :   -0.172129
  20 F :   -0.166858
  21 F :   -0.177995
  22 H :    0.077474
  23 H :    0.030316
  24 H :    0.026633
Sum of atomic charges:   -0.0000000

LOEWDIN ATOMIC CHARGES
----------------------
   0 C :   -0.026221
   1 C :   -0.044562
   2 C :    0.058116
   3 C :   -0.071238
   4 C :   -0.009490
   5 C :   -0.078268
   6 C :   -0.067853
   7 H :    0.056327
   8 C :    0.081226
   9 O :   -0.168385
  10 O :   -0.034020
  11 H :    0.087486
  12 H :    0.057308
  13 H :    0.039083
  14 H :    0.033504
  15 O :   -0.090018
  16 C :    0.041825
  17 H :    0.033848
  18 C :    0.141661
  19 F :   -0.056633
  20 F :   -0.050563
  21 F :   -0.061370
  22 H :    0.047780
  23 H :    0.043444
  24 H :    0.037012

  Mayer bond orders larger than 0.100000
B(  0-C ,  1-C ) :   1.4040 B(  0-C ,  5-C ) :   1.3617 B(  0-C , 24-H ) :   0.9920
B(  1-C ,  2-C ) :   1.3790 B(  1-C , 23-H ) :   0.9943 B(  2-C ,  3-C ) :   1.3258
B(  2-C , 15-O ) :   1.0717 B(  3-C ,  4-C ) :   1.3993 B(  3-C , 14-H ) :   0.9886
B(  4-C ,  5-C ) :   1.3907 B(  4-C , 13-H ) :   0.9910 B(  5-C ,  6-C ) :   0.9887
B(  6-C ,  7-H ) :   0.9339 B(  6-C ,  8-C ) :   0.9633 B(  6-C , 12-H ) :   0.9288
B(  8-C ,  9-O ) :   2.1423 B(  8-C , 10-O ) :   1.2124 B( 10-O , 11-H ) :   0.9465
B( 15-O , 16-C ) :   0.9700 B( 16-C , 17-H ) :   0.9367 B( 16-C , 18-C ) :   1.0093
B( 16-C , 22-H ) :   0.9375 B( 18-C , 19-F ) :   1.1271 B( 18-C , 20-F ) :   1.1453
B( 18-C , 21-F ) :   1.1189

Dispersion correction           -0.010047937
FINAL SINGLE POINT ENERGY      -910.789044052239

DIPOLE MOMENT
-------------
                                X             Y             Z
Electronic contribution:    -20.57229      -3.23203       0.08167
Nuclear contribution   :     19.18685       3.88483      -0.02922
                        -----------------------------------------
Total Dipole Moment    :     -1.38543       0.65280       0.05245
                        -----------------------------------------
Magnitude (a.u.)       :      1.53243
Magnitude (Debye)      :      3.89512

Rotational constants in cm-1:     0.052932     0.006430     0.006216
Rotational constants in MHz :  1586.876110   192.774007   186.342510

                             ****ORCA TERMINATED NORMALLY****
TOTAL RUN TIME: 0 days 0 hours 55 minutes 8 seconds 887 msec
