                         Program Version 4.2.0 -  RELEASE  -
|  1> # ORCA input file
|  2> # -47.32775933
|  3> ! wB97X-D3 def2-SVP Opt
|  4> * xyz 0 1
|  5>    C       -4.67310        -0.05810         0.69580
|  6>    C       -3.26430        -0.31500         0.26290
|  7>    C       -2.34140         0.71010         0.16570
|  8>    C       -1.03480         0.46410        -0.24680
|  9>    C       -0.60640        -0.82850        -0.56440
| 10>    C       -1.54200        -1.85070        -0.44680
| 11>    C       -2.84280        -1.60400        -0.05510
| 12>    H       -3.54330        -2.42320         0.01610
| 13>    H       -1.23860        -2.86340        -0.66900
| 14>    C        0.81000        -1.14000        -0.92630
| 15>    H        0.94380        -2.22050        -1.02330
| 16>    C        1.78760        -0.64580         0.14400
| 17>    O        1.41970        -0.24010         1.21970
| 18>    C        3.20590        -0.72700        -0.25500
| 19>    C        4.08520         0.44680         0.12870
| 20>    C        4.24200        -0.84370         0.84000
| 21>    H        5.10930        -1.45450         0.64130
| 22>    H        3.86300        -0.91230         1.84840
| 23>    H        4.83390         0.75520        -0.58410
| 24>    H        3.59790         1.25830         0.64610
| 25>    H        3.40280        -1.21000        -1.20220
| 26>    H        1.08650        -0.67270        -1.87320
| 27>    N       -0.16530         1.60700        -0.33740
| 28>    O       -0.47940         2.59950         0.28260
| 29>    O        0.81510         1.53720        -1.05300
| 30>    H       -2.61690         1.72630         0.40600
| 31>    H       -5.36820        -0.34180        -0.09330
| 32>    H       -4.82210         0.99170         0.93150
| 33>    H       -4.91080        -0.65170         1.57710
| 34> *
| 35>
| 36>                          ****END OF INPUT****
 Total Charge           Charge          ....    0
 Multiplicity           Mult            ....    1
 Number of Electrons    NEL             ....  116
Dispersion correction           -0.011928218
FINAL SINGLE POINT ENERGY      -744.668029461324
Dispersion correction            ... done
Dispersion correction           -0.011781553
FINAL SINGLE POINT ENERGY      -744.670880723481
Dispersion correction            ... done
Dispersion correction           -0.011826519
FINAL SINGLE POINT ENERGY      -744.669565073932
Dispersion correction            ... done
FINAL SINGLE POINT ENERGY      -744.671387167154
FINAL SINGLE POINT ENERGY      -744.671301260925
FINAL SINGLE POINT ENERGY      -744.671932124286
FINAL SINGLE POINT ENERGY      -744.671934520695
FINAL SINGLE POINT ENERGY      -744.671980528060
Dispersion correction            ... done
Dispersion correction           -0.011865223
FINAL SINGLE POINT ENERGY      -744.671986137260
Dispersion correction            ... done
Dispersion correction           -0.011905031
FINAL SINGLE POINT ENERGY      -744.671986418985
Dispersion correction            ... done
                    ***********************HURRAY********************

CARTESIAN COORDINATES (ANGSTROEM)
---------------------------------
  C     -4.748938   -0.051855    0.630413
  C     -3.316475   -0.310705    0.243887
  C     -2.381810    0.720819    0.187367
  C     -1.065473    0.467477   -0.186068
  C     -0.600885   -0.816036   -0.500810
  C     -1.550182   -1.840411   -0.421382
  C     -2.873153   -1.599847   -0.068891
  H     -3.576081   -2.437004   -0.029346
  H     -1.234031   -2.863304   -0.642506
  C      0.820368   -1.141618   -0.871293
  H      0.924431   -2.231964   -1.002263
  C      1.847585   -0.710921    0.168556
  O      1.524740   -0.308140    1.261947
  C      3.273759   -0.796298   -0.253945
  C      4.112318    0.434948    0.034801
  C      4.326323   -0.804283    0.826612
  H      5.224503   -1.398606    0.643836
  H      3.945308   -0.817687    1.850719
  H      4.849654    0.719562   -0.719099
  H      3.586345    1.265465    0.512526
  H      3.474515   -1.330123   -1.186847
  H      1.098190   -0.680010   -1.829916
  N     -0.176850    1.644329   -0.245566
  O     -0.465463    2.599732    0.434010
  O      0.776475    1.599253   -0.995164
  H     -2.658712    1.745475    0.438435
  H     -5.434853   -0.331259   -0.184203
  H     -4.916673    1.007962    0.864588
  H     -5.031636   -0.641753    1.515603

 Multiplicity           Mult            ....    1
 Number of Electrons    NEL             ....  116
 Basis Dimension        Dim             ....  289

ORBITAL ENERGIES
----------------

  NO   OCC          E(Eh)            E(eV)
   0   2.0000     -19.268754      -524.3295
   1   2.0000     -19.267733      -524.3017
   2   2.0000     -19.229491      -523.2611
   3   2.0000     -14.669703      -399.1829
   4   2.0000     -10.381470      -282.4942
   5   2.0000     -10.350828      -281.6604
   6   2.0000     -10.329760      -281.0871
   7   2.0000     -10.320053      -280.8229
   8   2.0000     -10.314540      -280.6729
   9   2.0000     -10.313857      -280.6543
  10   2.0000     -10.313288      -280.6388
  11   2.0000     -10.310882      -280.5734
  12   2.0000     -10.303739      -280.3790
  13   2.0000     -10.301588      -280.3204
  14   2.0000     -10.301373      -280.3146
  15   2.0000     -10.298906      -280.2475
  16   2.0000      -1.351094       -36.7651
  17   2.0000      -1.169829       -31.8327
  18   2.0000      -1.151215       -31.3262
  19   2.0000      -1.008330       -27.4381
  20   2.0000      -0.981586       -26.7103
  21   2.0000      -0.931023       -25.3344
  22   2.0000      -0.911852       -24.8127
  23   2.0000      -0.866258       -23.5721
  24   2.0000      -0.814115       -22.1532
  25   2.0000      -0.799769       -21.7628
  26   2.0000      -0.746066       -20.3015
  27   2.0000      -0.724968       -19.7274
  28   2.0000      -0.708384       -19.2761
  29   2.0000      -0.685743       -18.6600
  30   2.0000      -0.654457       -17.8087
  31   2.0000      -0.648496       -17.6465
  32   2.0000      -0.635058       -17.2808
  33   2.0000      -0.619633       -16.8611
  34   2.0000      -0.611219       -16.6321
  35   2.0000      -0.597334       -16.2543
  36   2.0000      -0.593079       -16.1385
  37   2.0000      -0.576026       -15.6745
  38   2.0000      -0.551090       -14.9959
  39   2.0000      -0.546489       -14.8707
  40   2.0000      -0.536306       -14.5936
  41   2.0000      -0.532175       -14.4812
  42   2.0000      -0.520374       -14.1601
  43   2.0000      -0.497232       -13.5304
  44   2.0000      -0.487400       -13.2628
  45   2.0000      -0.477904       -13.0044
  46   2.0000      -0.475386       -12.9359
  47   2.0000      -0.467742       -12.7279
  48   2.0000      -0.458439       -12.4748
  49   2.0000      -0.452421       -12.3110
  50   2.0000      -0.409873       -11.1532
  51   2.0000      -0.404603       -11.0098
  52   2.0000      -0.403201       -10.9717
  53   2.0000      -0.395365       -10.7584
  54   2.0000      -0.390456       -10.6249
  55   2.0000      -0.363235        -9.8841
  56   2.0000      -0.351173        -9.5559
  57   2.0000      -0.341828        -9.3016
  58   0.0000      -0.004956        -0.1349
  59   0.0000       0.051354         1.3974
  60   0.0000       0.067217         1.8291
  61   0.0000       0.080104         2.1797
  62   0.0000       0.140373         3.8197

MULLIKEN ATOMIC CHARGES
-----------------------
   0 C :    0.029952
   1 C :   -0.102863
   2 C :   -0.040364
   3 C :    0.139665
   4 C :   -0.078111
   5 C :   -0.056135
   6 C :    0.004104
   7 H :    0.014971
   8 H :    0.012863
   9 C :    0.106382
  10 H :    0.044059
  11 C :    0.069187
  12 O :   -0.217532
  13 C :   -0.183575
  14 C :   -0.049784
  15 C :   -0.027364
  16 H :    0.059211
  17 H :    0.075172
  18 H :    0.064752
  19 H :    0.084249
  20 H :    0.038511
  21 H :    0.078117
  22 N :    0.242223
  23 O :   -0.232876
  24 O :   -0.257703
  25 H :    0.027158
  26 H :    0.057203
  27 H :    0.040741
  28 H :    0.057788
Sum of atomic charges:   -0.0000000

LOEWDIN ATOMIC CHARGES
----------------------
   0 C :   -0.053316
   1 C :   -0.027612
   2 C :   -0.010772
   3 C :   -0.015046
   4 C :   -0.005902
   5 C :   -0.019742
   6 C :   -0.010417
   7 H :    0.035369
   8 H :    0.034281
   9 C :   -0.061863
  10 H :    0.046956
  11 C :    0.096647
  12 O :   -0.167175
  13 C :   -0.088310
  14 C :   -0.011906
  15 C :   -0.026302
  16 H :    0.033233
  17 H :    0.039321
  18 H :    0.034479
  19 H :    0.040728
  20 H :    0.030871
  21 H :    0.054378
  22 N :    0.288048
  23 O :   -0.191326
  24 O :   -0.207364
  25 H :    0.042093
  26 H :    0.041990
  27 H :    0.036022
  28 H :    0.042639

  Mayer bond orders larger than 0.100000
B(  0-C ,  1-C ) :   1.0344 B(  0-C , 26-H ) :   0.9626 B(  0-C , 27-H ) :   0.9692
B(  0-C , 28-H ) :   0.9623 B(  1-C ,  2-C ) :   1.3721 B(  1-C ,  6-C ) :   1.3862
B(  2-C ,  3-C ) :   1.3994 B(  2-C , 25-H ) :   0.9848 B(  3-C ,  4-C ) :   1.4131
B(  3-C , 22-N ) :   0.8346 B(  4-C ,  5-C ) :   1.4030 B(  4-C ,  9-C ) :   1.0220
B(  5-C ,  6-C ) :   1.4019 B(  5-C ,  8-H ) :   0.9860 B(  6-C ,  7-H ) :   0.9941
B(  9-C , 10-H ) :   0.9057 B(  9-C , 11-C ) :   0.9464 B(  9-C , 21-H ) :   0.9086
B( 11-C , 12-O ) :   2.1693 B( 11-C , 13-C ) :   0.9802 B( 13-C , 14-C ) :   0.9371
B( 13-C , 15-C ) :   0.9475 B( 13-C , 20-H ) :   0.9489 B( 14-C , 15-C ) :   1.0375
B( 14-C , 18-H ) :   0.9625 B( 14-C , 19-H ) :   0.9581 B( 15-C , 16-H ) :   0.9591
B( 15-C , 17-H ) :   0.9477 B( 22-N , 23-O ) :   1.5790 B( 22-N , 24-O ) :   1.5178
B( 23-O , 24-O ) :   0.2606

Dispersion correction           -0.011910312
FINAL SINGLE POINT ENERGY      -744.671986759835

DIPOLE MOMENT
-------------
                                X             Y             Z
Electronic contribution:     -0.81704       5.93514      -0.65075
Nuclear contribution   :      0.19216      -7.41957      -0.07956
                        -----------------------------------------
Total Dipole Moment    :     -0.62487      -1.48443      -0.73031
                        -----------------------------------------
Magnitude (a.u.)       :      1.76843
Magnitude (Debye)      :      4.49499

Rotational constants in cm-1:     0.038543     0.010820     0.009276
Rotational constants in MHz :  1155.477774   324.368474   278.093478

                             ****ORCA TERMINATED NORMALLY****
TOTAL RUN TIME: 0 days 1 hours 5 minutes 55 seconds 644 msec
